 vasp.5.3.5 31Mar14 (build Sep 09 2015 15:22:16) complex                        
  
 executed on Braid_opmi165-intel1 date 2017.11.01  20:20:19
 running on    8 total cores
 distrk:  each k-point on    8 cores,    1 groups
 distr:  one band on NCORES_PER_BAND=   1 cores,    8 groups


--------------------------------------------------------------------------------------------------------


 INCAR:
 POTCAR:    PAW_PBE Li 17Jan2003                  
 POTCAR:    PAW_PBE Ni 02Aug2007                  
 POTCAR:    PAW_PBE Ni 02Aug2007                  
 POTCAR:    PAW_PBE O 08Apr2002                   

 ----------------------------------------------------------------------------- 
|                                                                             |
|           W    W    AA    RRRRR   N    N  II  N    N   GGGG   !!!           |
|           W    W   A  A   R    R  NN   N  II  NN   N  G    G  !!!           |
|           W    W  A    A  R    R  N N  N  II  N N  N  G       !!!           |
|           W WW W  AAAAAA  RRRRR   N  N N  II  N  N N  G  GGG   !            |
|           WW  WW  A    A  R   R   N   NN  II  N   NN  G    G                |
|           W    W  A    A  R    R  N    N  II  N    N   GGGG   !!!           |
|                                                                             |
|      For optimal performance we recommend to set                            |
|        NCORE= 4 - approx SQRT( number of cores)                             |
|      NCORE specifies how many cores store one orbital (NPAR=cpu/NCORE).     |
|      This setting can  greatly improve the performance of VASP for DFT.     |
|      The default, NPAR=number of cores might be grossly inefficient         |
|      on modern multi-core architectures or massively parallel machines.     |
|      Do your own testing !!!!                                               |
|      Unfortunately you need to use the default for GW and RPA calculations. |
|      (for HF NCORE is supported but not extensively tested yet)             |
|                                                                             |
 ----------------------------------------------------------------------------- 


 ----------------------------------------------------------------------------- 
|                                                                             |
|  ADVICE TO THIS USER RUNNING 'VASP/VAMP'   (HEAR YOUR MASTER'S VOICE ...):  |
|                                                                             |
|      You have switched on vdW-DFT.                                          |
|      This routine was written and supplied by Jiri Klimes.                  |
|      We recommed that you carefully read and cite the following             |
|      publication                                                            |
|      J. Klimes, D.R. Bowler, A. Michelides                                  |
|        J. Phys.: Cond Matt. 22 022201 (2010)                                |
|      J. Klimes, D.R. Bowler, A. Michelides                                  |
|        Phys. Rev. B. 83, 195131 (2011)                                      |
|      and references therein.                                                |
|                                                                             |
 ----------------------------------------------------------------------------- 

 POTCAR:    PAW_PBE Li 17Jan2003                  
   VRHFIN =Li: s1p0                                                             
   LEXCH  = PE                                                                  
   EATOM  =     5.3001 eV,    0.3895 Ry                                         
                                                                                
   TITEL  = PAW_PBE Li 17Jan2003                                                
   LULTRA =        F    use ultrasoft PP ?                                      
   IUNSCR =        1    unscreen: 0-lin 1-nonlin 2-no                           
   RPACOR =    1.500    partial core radius                                     
   POMASS =    7.010; ZVAL   =    1.000    mass and valenz                      
   RCORE  =    2.050    outmost cutoff radius                                   
   RWIGS  =    2.600; RWIGS  =    1.376    wigner-seitz radius (au A)           
   ENMAX  =  140.000; ENMIN  =  100.000 eV                                      
   ICORE  =        2    local potential                                         
   LCOR   =        T    correct aug charges                                     
   LPAW   =        T    paw PP                                                  
   EAUG   =  331.638                                                            
   DEXC   =    0.000                                                            
   RMAX   =    2.098    core radius for proj-oper                               
   RAUG   =    1.300    factor for augmentation sphere                          
   RDEP   =    2.094    radius for radial grids                                 
   RDEPT  =    1.810    core radius for aug-charge                              
                                                                                
   Atomic configuration                                                         
    4 entries                                                                   
     n  l   j            E        occ.                                          
     1  0  0.50       -51.8549   2.0000                                         
     2  0  0.50        -2.8742   1.0000                                         
     2  1  0.50        -1.3606   0.0000                                         
     3  2  1.50        -1.3606   0.0000                                         
   Description                                                                  
     l       E           TYP  RCUT    TYP  RCUT                                 
     0     -2.8742052     23  2.050                                             
     0     27.2116520     23  2.050                                             
     1     -1.3605826     23  2.050                                             
     2     -1.3605826     23  2.050                                             
  local pseudopotential read in
  partial core-charges read in
  partial kinetic energy density read in
  atomic valenz-charges read in
  non local Contribution for L=           0  read in
    real space projection operators read in
  non local Contribution for L=           0  read in
    real space projection operators read in
  non local Contribution for L=           1  read in
    real space projection operators read in
    PAW grid and wavefunctions read in
 
   number of l-projection  operators is LMAX  =           3
   number of lm-projection operators is LMMAX =           5
 
 POTCAR:    PAW_PBE Ni 02Aug2007                  
   VRHFIN =Ni:                                                                  
   LEXCH  = PE                                                                  
   EATOM  =  1077.6739 eV,   79.2068 Ry                                         
                                                                                
   TITEL  = PAW_PBE Ni 02Aug2007                                                
   LULTRA =        F    use ultrasoft PP ?                                      
   IUNSCR =        1    unscreen: 0-lin 1-nonlin 2-no                           
   RPACOR =    2.000    partial core radius                                     
   POMASS =   58.690; ZVAL   =   10.000    mass and valenz                      
   RCORE  =    2.300    outmost cutoff radius                                   
   RWIGS  =    2.430; RWIGS  =    1.286    wigner-seitz radius (au A)           
   ENMAX  =  269.532; ENMIN  =  202.149 eV                                      
   RCLOC  =    1.201    cutoff for local pot                                    
   LCOR   =        T    correct aug charges                                     
   LPAW   =        T    paw PP                                                  
   EAUG   =  544.565                                                            
   DEXC   =    0.000                                                            
   RMAX   =    2.357    core radius for proj-oper                               
   RAUG   =    1.300    factor for augmentation sphere                          
   RDEP   =    2.390    radius for radial grids                                 
   RDEPT  =    1.838    core radius for aug-charge                              
                                                                                
   Atomic configuration                                                         
    9 entries                                                                   
     n  l   j            E        occ.                                          
     1  0  0.50     -8206.4253   2.0000                                         
     2  0  0.50      -976.1748   2.0000                                         
     2  1  1.50      -839.0571   6.0000                                         
     3  0  0.50      -105.9991   2.0000                                         
     3  1  1.50       -66.4603   6.0000                                         
     3  2  2.50        -4.6458   9.0000                                         
     4  0  0.50        -4.4926   1.0000                                         
     4  1  1.50        -4.0817   0.0000                                         
     4  3  2.50        -1.3606   0.0000                                         
   Description                                                                  
     l       E           TYP  RCUT    TYP  RCUT                                 
     2     -4.6457903     23  2.300                                             
     2     -6.0063729     23  2.300                                             
     0     -4.4925590     23  2.300                                             
     0      5.0102601     23  2.300                                             
     1     -2.7211652     23  2.300                                             
     1     16.5183231     23  2.300                                             
  local pseudopotential read in
  partial core-charges read in
  partial kinetic energy density read in
  atomic valenz-charges read in
  non local Contribution for L=           2  read in
    real space projection operators read in
  non local Contribution for L=           2  read in
    real space projection operators read in
  non local Contribution for L=           0  read in
    real space projection operators read in
  non local Contribution for L=           0  read in
    real space projection operators read in
  non local Contribution for L=           1  read in
    real space projection operators read in
  non local Contribution for L=           1  read in
    real space projection operators read in
    PAW grid and wavefunctions read in
 
   number of l-projection  operators is LMAX  =           6
   number of lm-projection operators is LMMAX =          18
 
 POTCAR:    PAW_PBE Ni 02Aug2007                  
   VRHFIN =Ni:                                                                  
   LEXCH  = PE                                                                  
   EATOM  =  1077.6739 eV,   79.2068 Ry                                         
                                                                                
   TITEL  = PAW_PBE Ni 02Aug2007                                                
   LULTRA =        F    use ultrasoft PP ?                                      
   IUNSCR =        1    unscreen: 0-lin 1-nonlin 2-no                           
   RPACOR =    2.000    partial core radius                                     
   POMASS =   58.690; ZVAL   =   10.000    mass and valenz                      
   RCORE  =    2.300    outmost cutoff radius                                   
   RWIGS  =    2.430; RWIGS  =    1.286    wigner-seitz radius (au A)           
   ENMAX  =  269.532; ENMIN  =  202.149 eV                                      
   RCLOC  =    1.201    cutoff for local pot                                    
   LCOR   =        T    correct aug charges                                     
   LPAW   =        T    paw PP                                                  
   EAUG   =  544.565                                                            
   DEXC   =    0.000                                                            
   RMAX   =    2.357    core radius for proj-oper                               
   RAUG   =    1.300    factor for augmentation sphere                          
   RDEP   =    2.390    radius for radial grids                                 
   RDEPT  =    1.838    core radius for aug-charge                              
                                                                                
   Atomic configuration                                                         
    9 entries                                                                   
     n  l   j            E        occ.                                          
     1  0  0.50     -8206.4253   2.0000                                         
     2  0  0.50      -976.1748   2.0000                                         
     2  1  1.50      -839.0571   6.0000                                         
     3  0  0.50      -105.9991   2.0000                                         
     3  1  1.50       -66.4603   6.0000                                         
     3  2  2.50        -4.6458   9.0000                                         
     4  0  0.50        -4.4926   1.0000                                         
     4  1  1.50        -4.0817   0.0000                                         
     4  3  2.50        -1.3606   0.0000                                         
   Description                                                                  
     l       E           TYP  RCUT    TYP  RCUT                                 
     2     -4.6457903     23  2.300                                             
     2     -6.0063729     23  2.300                                             
     0     -4.4925590     23  2.300                                             
     0      5.0102601     23  2.300                                             
     1     -2.7211652     23  2.300                                             
     1     16.5183231     23  2.300                                             
  local pseudopotential read in
  partial core-charges read in
  partial kinetic energy density read in
  atomic valenz-charges read in
  non local Contribution for L=           2  read in
    real space projection operators read in
  non local Contribution for L=           2  read in
    real space projection operators read in
  non local Contribution for L=           0  read in
    real space projection operators read in
  non local Contribution for L=           0  read in
    real space projection operators read in
  non local Contribution for L=           1  read in
    real space projection operators read in
  non local Contribution for L=           1  read in
    real space projection operators read in
    PAW grid and wavefunctions read in
 
   number of l-projection  operators is LMAX  =           6
   number of lm-projection operators is LMMAX =          18
 
 POTCAR:    PAW_PBE O 08Apr2002                   
   VRHFIN =O: s2p4                                                              
   LEXCH  = PE                                                                  
   EATOM  =   432.3788 eV,   31.7789 Ry                                         
                                                                                
   TITEL  = PAW_PBE O 08Apr2002                                                 
   LULTRA =        F    use ultrasoft PP ?                                      
   IUNSCR =        1    unscreen: 0-lin 1-nonlin 2-no                           
   RPACOR =    1.200    partial core radius                                     
   POMASS =   16.000; ZVAL   =    6.000    mass and valenz                      
   RCORE  =    1.520    outmost cutoff radius                                   
   RWIGS  =    1.550; RWIGS  =    0.820    wigner-seitz radius (au A)           
   ENMAX  =  400.000; ENMIN  =  300.000 eV                                      
   ICORE  =        2    local potential                                         
   LCOR   =        T    correct aug charges                                     
   LPAW   =        T    paw PP                                                  
   EAUG   =  605.392                                                            
   DEXC   =    0.000                                                            
   RMAX   =    1.553    core radius for proj-oper                               
   RAUG   =    1.300    factor for augmentation sphere                          
   RDEP   =    1.550    radius for radial grids                                 
   RDEPT  =    1.329    core radius for aug-charge                              
                                                                                
   Atomic configuration                                                         
    4 entries                                                                   
     n  l   j            E        occ.                                          
     1  0  0.50      -514.6923   2.0000                                         
     2  0  0.50       -23.9615   2.0000                                         
     2  1  0.50        -9.0305   4.0000                                         
     3  2  1.50        -9.5241   0.0000                                         
   Description                                                                  
     l       E           TYP  RCUT    TYP  RCUT                                 
     0    -23.9615318     23  1.200                                             
     0     -9.5240782     23  1.200                                             
     1     -9.0304911     23  1.520                                             
     1      8.1634956     23  1.520                                             
     2     -9.5240782      7  1.500                                             
  local pseudopotential read in
  partial core-charges read in
  partial kinetic energy density read in
  kinetic energy density of atom read in
  atomic valenz-charges read in
  non local Contribution for L=           0  read in
    real space projection operators read in
  non local Contribution for L=           0  read in
    real space projection operators read in
  non local Contribution for L=           1  read in
    real space projection operators read in
  non local Contribution for L=           1  read in
    real space projection operators read in
    PAW grid and wavefunctions read in
 
   number of l-projection  operators is LMAX  =           4
   number of lm-projection operators is LMMAX =           8
 

 ----------------------------------------------------------------------------- 
|                                                                             |
|  ADVICE TO THIS USER RUNNING 'VASP/VAMP'   (HEAR YOUR MASTER'S VOICE ...):  |
|                                                                             |
|      You have a (more or less) 'small supercell' and for smaller cells      |
|      it is recommended  to use the reciprocal-space projection scheme!      |
|      The real space optimization is not  efficient for small cells and it   |
|      is also less accurate ...                                              |
|      Therefore set LREAL=.FALSE. in the  INCAR file                         |
|                                                                             |
 ----------------------------------------------------------------------------- 

 Optimization of the real space projectors (new method)

 maximal supplied QI-value         = 18.33
 optimisation between [QCUT,QGAM] = [ 12.46, 24.93] = [ 43.51,174.03] Ry 
 Optimized for a Real-space Cutoff    1.16 Angstroem

   l    n(q)    QCUT    max X(q) W(low)/X(q) W(high)/X(q)  e(spline) 
   0      9    12.465    33.825    0.19E-03    0.91E-04    0.59E-07
   0      9    12.465     8.944    0.14E-03    0.70E-04    0.43E-07
   1      8    12.465     4.214    0.55E-04    0.11E-03    0.64E-07
 Optimization of the real space projectors (new method)

 maximal supplied QI-value         = 16.25
 optimisation between [QCUT,QGAM] = [ 12.51, 25.03] = [ 43.85,175.40] Ry 
 Optimized for a Real-space Cutoff    1.35 Angstroem

   l    n(q)    QCUT    max X(q) W(low)/X(q) W(high)/X(q)  e(spline) 
   2      9    12.514    60.317    0.12E-03    0.13E-03    0.35E-06
   2      9    12.514    55.921    0.12E-03    0.13E-03    0.36E-06
   0     10    12.514    51.690    0.20E-03    0.11E-03    0.14E-06
   0     10    12.514    30.015    0.18E-03    0.96E-04    0.13E-06
   1     10    12.514    18.849    0.12E-03    0.67E-04    0.21E-06
   1     10    12.514    14.624    0.11E-03    0.53E-04    0.17E-06
 Optimization of the real space projectors (new method)

 maximal supplied QI-value         = 16.25
 optimisation between [QCUT,QGAM] = [ 12.51, 25.03] = [ 43.85,175.40] Ry 
 Optimized for a Real-space Cutoff    1.35 Angstroem

   l    n(q)    QCUT    max X(q) W(low)/X(q) W(high)/X(q)  e(spline) 
   2      9    12.514    60.317    0.12E-03    0.13E-03    0.35E-06
   2      9    12.514    55.921    0.12E-03    0.13E-03    0.36E-06
   0     10    12.514    51.690    0.20E-03    0.11E-03    0.14E-06
   0     10    12.514    30.015    0.18E-03    0.96E-04    0.13E-06
   1     10    12.514    18.849    0.12E-03    0.67E-04    0.21E-06
   1     10    12.514    14.624    0.11E-03    0.53E-04    0.17E-06
 Optimization of the real space projectors (new method)

 maximal supplied QI-value         = 24.76
 optimisation between [QCUT,QGAM] = [ 12.38, 25.00] = [ 42.90,175.06] Ry 
 Optimized for a Real-space Cutoff    1.16 Angstroem

   l    n(q)    QCUT    max X(q) W(low)/X(q) W(high)/X(q)  e(spline) 
   0      9    12.378    20.381    0.16E-03    0.67E-05    0.31E-06
   0      9    12.378    15.268    0.17E-03    0.81E-05    0.33E-06
   1      8    12.378     5.964    0.20E-03    0.16E-03    0.30E-06
   1      8    12.378     5.382    0.18E-03    0.14E-03    0.26E-06

 ----------------------------------------------------------------------------- 
|                                                                             |
|  ADVICE TO THIS USER RUNNING 'VASP/VAMP'   (HEAR YOUR MASTER'S VOICE ...):  |
|                                                                             |
|      You enforced a specific xc-type in the INCAR file,                     |
|      a different type was found on the POTCAR file                          |
|          I HOPE YOU KNOW, WHAT YOU ARE  DOING                               |
|                                                                             |
 ----------------------------------------------------------------------------- 

  PAW_PBE Li 17Jan2003                  :
 energy of atom  1       EATOM=   -5.3001
 kinetic energy error for atom=    0.0000 (will be added to EATOM!!)
  PAW_PBE Ni 02Aug2007                  :
 energy of atom  2       EATOM=-1077.6739
 kinetic energy error for atom=    0.0019 (will be added to EATOM!!)
  PAW_PBE Ni 02Aug2007                  :
 energy of atom  3       EATOM=-1077.6739
 kinetic energy error for atom=    0.0019 (will be added to EATOM!!)
  PAW_PBE O 08Apr2002                   :
 energy of atom  4       EATOM= -432.3788
 kinetic energy error for atom=    0.0168 (will be added to EATOM!!)
 
  
 Occupation matrix control coded by Prof. Graeme Watson 
 at Trinity College Dublin
  
 Occupation set for the following atoms 
  
 
 POSCAR: SCEL2_2_1_1_0_0_0/0                     
  positions in direct lattice
  velocities in cartesian coordinates
 exchange correlation table for  LEXCH =       43
   RHO(1)=    0.500       N(1)  =     2000
   RHO(2)=  100.500       N(2)  =     4000
 


--------------------------------------------------------------------------------------------------------


 ion  position               nearest neighbor table
   1  0.000  0.000  1.000-   7 2.03   6 2.03   8 2.08   5 2.08   6 2.20   7 2.20   2 2.83   2 2.83
                             2 2.83   2 2.83   4 2.86   3 2.86   4 2.86   3 2.86   3 2.89   4 2.89
   2  0.500  0.500  0.000-   5 2.03   8 2.03   6 2.08   7 2.08   8 2.20   5 2.20   1 2.83   1 2.83
                             1 2.83   1 2.83   4 2.86   3 2.86   4 2.86   3 2.86   3 2.89   4 2.89
   3  0.750  0.250  0.500-   7 1.88   5 1.88   6 1.90   8 1.90   6 2.08   8 2.08   4 2.83   4 2.83
                             4 2.83   4 2.83   2 2.86   1 2.86   2 2.86   1 2.86   1 2.89   2 2.89
   4  0.250  0.750  0.500-   8 1.88   6 1.88   7 1.90   5 1.90   5 2.08   7 2.08   3 2.83   3 2.83
                             3 2.83   3 2.83   1 2.86   2 2.86   2 2.86   1 2.86   2 2.89   1 2.89
   5  0.904  0.614  0.723-   3 1.88   4 1.90   2 2.03   4 2.08   1 2.08   2 2.20
   6  0.319  0.114  0.723-   4 1.88   3 1.90   1 2.03   3 2.08   2 2.08   1 2.20
   7  0.596  0.886  0.277-   3 1.88   4 1.90   1 2.03   4 2.08   2 2.08   1 2.20
   8  0.181  0.386  0.277-   4 1.88   3 1.90   2 2.03   3 2.08   1 2.08   2 2.20
 

IMPORTANT INFORMATION: All symmetrisations will be switched off!
NOSYMM: (Re-)initialisation of all symmetry stuff for point group C_1.

 
 
 KPOINTS: Automatic mesh                          

Automatic generation of k-mesh.
 generate k-points for:    9    5    6
Space group operators:
 irot       det(A)        alpha          n_x          n_y          n_z        tau_x        tau_y        tau_z
    1     1.000000     0.000000     1.000000     0.000000     0.000000     0.000000     0.000000     0.000000
 
 Subroutine IBZKPT returns following result:
 ===========================================
 
 Found    270 irreducible k-points:
 
 Following reciprocal coordinates:
            Coordinates               Weight
  0.000000  0.000000  0.000000      1.000000
  0.111111  0.000000  0.000000      1.000000
  0.222222  0.000000  0.000000      1.000000
  0.333333  0.000000  0.000000      1.000000
  0.444444  0.000000  0.000000      1.000000
 -0.444444  0.000000  0.000000      1.000000
 -0.333333  0.000000  0.000000      1.000000
 -0.222222  0.000000  0.000000      1.000000
 -0.111111  0.000000  0.000000      1.000000
  0.000000  0.200000  0.000000      1.000000
  0.111111  0.200000  0.000000      1.000000
  0.222222  0.200000  0.000000      1.000000
  0.333333  0.200000  0.000000      1.000000
  0.444444  0.200000  0.000000      1.000000
 -0.444444  0.200000  0.000000      1.000000
 -0.333333  0.200000  0.000000      1.000000
 -0.222222  0.200000  0.000000      1.000000
 -0.111111  0.200000  0.000000      1.000000
  0.000000  0.400000  0.000000      1.000000
  0.111111  0.400000  0.000000      1.000000
  0.222222  0.400000  0.000000      1.000000
  0.333333  0.400000  0.000000      1.000000
  0.444444  0.400000  0.000000      1.000000
 -0.444444  0.400000  0.000000      1.000000
 -0.333333  0.400000  0.000000      1.000000
 -0.222222  0.400000  0.000000      1.000000
 -0.111111  0.400000  0.000000      1.000000
  0.000000 -0.400000  0.000000      1.000000
  0.111111 -0.400000  0.000000      1.000000
  0.222222 -0.400000  0.000000      1.000000
  0.333333 -0.400000  0.000000      1.000000
  0.444444 -0.400000  0.000000      1.000000
 -0.444444 -0.400000  0.000000      1.000000
 -0.333333 -0.400000  0.000000      1.000000
 -0.222222 -0.400000  0.000000      1.000000
 -0.111111 -0.400000  0.000000      1.000000
  0.000000 -0.200000  0.000000      1.000000
  0.111111 -0.200000  0.000000      1.000000
  0.222222 -0.200000  0.000000      1.000000
  0.333333 -0.200000  0.000000      1.000000
  0.444444 -0.200000  0.000000      1.000000
 -0.444444 -0.200000  0.000000      1.000000
 -0.333333 -0.200000  0.000000      1.000000
 -0.222222 -0.200000  0.000000      1.000000
 -0.111111 -0.200000  0.000000      1.000000
  0.000000  0.000000  0.166667      1.000000
  0.111111  0.000000  0.166667      1.000000
  0.222222  0.000000  0.166667      1.000000
  0.333333  0.000000  0.166667      1.000000
  0.444444  0.000000  0.166667      1.000000
 -0.444444  0.000000  0.166667      1.000000
 -0.333333  0.000000  0.166667      1.000000
 -0.222222  0.000000  0.166667      1.000000
 -0.111111  0.000000  0.166667      1.000000
  0.000000  0.200000  0.166667      1.000000
  0.111111  0.200000  0.166667      1.000000
  0.222222  0.200000  0.166667      1.000000
  0.333333  0.200000  0.166667      1.000000
  0.444444  0.200000  0.166667      1.000000
 -0.444444  0.200000  0.166667      1.000000
 -0.333333  0.200000  0.166667      1.000000
 -0.222222  0.200000  0.166667      1.000000
 -0.111111  0.200000  0.166667      1.000000
  0.000000  0.400000  0.166667      1.000000
  0.111111  0.400000  0.166667      1.000000
  0.222222  0.400000  0.166667      1.000000
  0.333333  0.400000  0.166667      1.000000
  0.444444  0.400000  0.166667      1.000000
 -0.444444  0.400000  0.166667      1.000000
 -0.333333  0.400000  0.166667      1.000000
 -0.222222  0.400000  0.166667      1.000000
 -0.111111  0.400000  0.166667      1.000000
  0.000000 -0.400000  0.166667      1.000000
  0.111111 -0.400000  0.166667      1.000000
  0.222222 -0.400000  0.166667      1.000000
  0.333333 -0.400000  0.166667      1.000000
  0.444444 -0.400000  0.166667      1.000000
 -0.444444 -0.400000  0.166667      1.000000
 -0.333333 -0.400000  0.166667      1.000000
 -0.222222 -0.400000  0.166667      1.000000
 -0.111111 -0.400000  0.166667      1.000000
  0.000000 -0.200000  0.166667      1.000000
  0.111111 -0.200000  0.166667      1.000000
  0.222222 -0.200000  0.166667      1.000000
  0.333333 -0.200000  0.166667      1.000000
  0.444444 -0.200000  0.166667      1.000000
 -0.444444 -0.200000  0.166667      1.000000
 -0.333333 -0.200000  0.166667      1.000000
 -0.222222 -0.200000  0.166667      1.000000
 -0.111111 -0.200000  0.166667      1.000000
  0.000000  0.000000  0.333333      1.000000
  0.111111  0.000000  0.333333      1.000000
  0.222222  0.000000  0.333333      1.000000
  0.333333  0.000000  0.333333      1.000000
  0.444444  0.000000  0.333333      1.000000
 -0.444444  0.000000  0.333333      1.000000
 -0.333333  0.000000  0.333333      1.000000
 -0.222222  0.000000  0.333333      1.000000
 -0.111111  0.000000  0.333333      1.000000
  0.000000  0.200000  0.333333      1.000000
  0.111111  0.200000  0.333333      1.000000
  0.222222  0.200000  0.333333      1.000000
  0.333333  0.200000  0.333333      1.000000
  0.444444  0.200000  0.333333      1.000000
 -0.444444  0.200000  0.333333      1.000000
 -0.333333  0.200000  0.333333      1.000000
 -0.222222  0.200000  0.333333      1.000000
 -0.111111  0.200000  0.333333      1.000000
  0.000000  0.400000  0.333333      1.000000
  0.111111  0.400000  0.333333      1.000000
  0.222222  0.400000  0.333333      1.000000
  0.333333  0.400000  0.333333      1.000000
  0.444444  0.400000  0.333333      1.000000
 -0.444444  0.400000  0.333333      1.000000
 -0.333333  0.400000  0.333333      1.000000
 -0.222222  0.400000  0.333333      1.000000
 -0.111111  0.400000  0.333333      1.000000
  0.000000 -0.400000  0.333333      1.000000
  0.111111 -0.400000  0.333333      1.000000
  0.222222 -0.400000  0.333333      1.000000
  0.333333 -0.400000  0.333333      1.000000
  0.444444 -0.400000  0.333333      1.000000
 -0.444444 -0.400000  0.333333      1.000000
 -0.333333 -0.400000  0.333333      1.000000
 -0.222222 -0.400000  0.333333      1.000000
 -0.111111 -0.400000  0.333333      1.000000
  0.000000 -0.200000  0.333333      1.000000
  0.111111 -0.200000  0.333333      1.000000
  0.222222 -0.200000  0.333333      1.000000
  0.333333 -0.200000  0.333333      1.000000
  0.444444 -0.200000  0.333333      1.000000
 -0.444444 -0.200000  0.333333      1.000000
 -0.333333 -0.200000  0.333333      1.000000
 -0.222222 -0.200000  0.333333      1.000000
 -0.111111 -0.200000  0.333333      1.000000
  0.000000  0.000000  0.500000      1.000000
  0.111111  0.000000  0.500000      1.000000
  0.222222  0.000000  0.500000      1.000000
  0.333333  0.000000  0.500000      1.000000
  0.444444  0.000000  0.500000      1.000000
 -0.444444  0.000000  0.500000      1.000000
 -0.333333  0.000000  0.500000      1.000000
 -0.222222  0.000000  0.500000      1.000000
 -0.111111  0.000000  0.500000      1.000000
  0.000000  0.200000  0.500000      1.000000
  0.111111  0.200000  0.500000      1.000000
  0.222222  0.200000  0.500000      1.000000
  0.333333  0.200000  0.500000      1.000000
  0.444444  0.200000  0.500000      1.000000
 -0.444444  0.200000  0.500000      1.000000
 -0.333333  0.200000  0.500000      1.000000
 -0.222222  0.200000  0.500000      1.000000
 -0.111111  0.200000  0.500000      1.000000
  0.000000  0.400000  0.500000      1.000000
  0.111111  0.400000  0.500000      1.000000
  0.222222  0.400000  0.500000      1.000000
  0.333333  0.400000  0.500000      1.000000
  0.444444  0.400000  0.500000      1.000000
 -0.444444  0.400000  0.500000      1.000000
 -0.333333  0.400000  0.500000      1.000000
 -0.222222  0.400000  0.500000      1.000000
 -0.111111  0.400000  0.500000      1.000000
  0.000000 -0.400000  0.500000      1.000000
  0.111111 -0.400000  0.500000      1.000000
  0.222222 -0.400000  0.500000      1.000000
  0.333333 -0.400000  0.500000      1.000000
  0.444444 -0.400000  0.500000      1.000000
 -0.444444 -0.400000  0.500000      1.000000
 -0.333333 -0.400000  0.500000      1.000000
 -0.222222 -0.400000  0.500000      1.000000
 -0.111111 -0.400000  0.500000      1.000000
  0.000000 -0.200000  0.500000      1.000000
  0.111111 -0.200000  0.500000      1.000000
  0.222222 -0.200000  0.500000      1.000000
  0.333333 -0.200000  0.500000      1.000000
  0.444444 -0.200000  0.500000      1.000000
 -0.444444 -0.200000  0.500000      1.000000
 -0.333333 -0.200000  0.500000      1.000000
 -0.222222 -0.200000  0.500000      1.000000
 -0.111111 -0.200000  0.500000      1.000000
  0.000000  0.000000 -0.333333      1.000000
  0.111111  0.000000 -0.333333      1.000000
  0.222222  0.000000 -0.333333      1.000000
  0.333333  0.000000 -0.333333      1.000000
  0.444444  0.000000 -0.333333      1.000000
 -0.444444  0.000000 -0.333333      1.000000
 -0.333333  0.000000 -0.333333      1.000000
 -0.222222  0.000000 -0.333333      1.000000
 -0.111111  0.000000 -0.333333      1.000000
  0.000000  0.200000 -0.333333      1.000000
  0.111111  0.200000 -0.333333      1.000000
  0.222222  0.200000 -0.333333      1.000000
  0.333333  0.200000 -0.333333      1.000000
  0.444444  0.200000 -0.333333      1.000000
 -0.444444  0.200000 -0.333333      1.000000
 -0.333333  0.200000 -0.333333      1.000000
 -0.222222  0.200000 -0.333333      1.000000
 -0.111111  0.200000 -0.333333      1.000000
  0.000000  0.400000 -0.333333      1.000000
  0.111111  0.400000 -0.333333      1.000000
  0.222222  0.400000 -0.333333      1.000000
  0.333333  0.400000 -0.333333      1.000000
  0.444444  0.400000 -0.333333      1.000000
 -0.444444  0.400000 -0.333333      1.000000
 -0.333333  0.400000 -0.333333      1.000000
 -0.222222  0.400000 -0.333333      1.000000
 -0.111111  0.400000 -0.333333      1.000000
  0.000000 -0.400000 -0.333333      1.000000
  0.111111 -0.400000 -0.333333      1.000000
  0.222222 -0.400000 -0.333333      1.000000
  0.333333 -0.400000 -0.333333      1.000000
  0.444444 -0.400000 -0.333333      1.000000
 -0.444444 -0.400000 -0.333333      1.000000
 -0.333333 -0.400000 -0.333333      1.000000
 -0.222222 -0.400000 -0.333333      1.000000
 -0.111111 -0.400000 -0.333333      1.000000
  0.000000 -0.200000 -0.333333      1.000000
  0.111111 -0.200000 -0.333333      1.000000
  0.222222 -0.200000 -0.333333      1.000000
  0.333333 -0.200000 -0.333333      1.000000
  0.444444 -0.200000 -0.333333      1.000000
 -0.444444 -0.200000 -0.333333      1.000000
 -0.333333 -0.200000 -0.333333      1.000000
 -0.222222 -0.200000 -0.333333      1.000000
 -0.111111 -0.200000 -0.333333      1.000000
  0.000000  0.000000 -0.166667      1.000000
  0.111111  0.000000 -0.166667      1.000000
  0.222222  0.000000 -0.166667      1.000000
  0.333333  0.000000 -0.166667      1.000000
  0.444444  0.000000 -0.166667      1.000000
 -0.444444  0.000000 -0.166667      1.000000
 -0.333333  0.000000 -0.166667      1.000000
 -0.222222  0.000000 -0.166667      1.000000
 -0.111111  0.000000 -0.166667      1.000000
  0.000000  0.200000 -0.166667      1.000000
  0.111111  0.200000 -0.166667      1.000000
  0.222222  0.200000 -0.166667      1.000000
  0.333333  0.200000 -0.166667      1.000000
  0.444444  0.200000 -0.166667      1.000000
 -0.444444  0.200000 -0.166667      1.000000
 -0.333333  0.200000 -0.166667      1.000000
 -0.222222  0.200000 -0.166667      1.000000
 -0.111111  0.200000 -0.166667      1.000000
  0.000000  0.400000 -0.166667      1.000000
  0.111111  0.400000 -0.166667      1.000000
  0.222222  0.400000 -0.166667      1.000000
  0.333333  0.400000 -0.166667      1.000000
  0.444444  0.400000 -0.166667      1.000000
 -0.444444  0.400000 -0.166667      1.000000
 -0.333333  0.400000 -0.166667      1.000000
 -0.222222  0.400000 -0.166667      1.000000
 -0.111111  0.400000 -0.166667      1.000000
  0.000000 -0.400000 -0.166667      1.000000
  0.111111 -0.400000 -0.166667      1.000000
  0.222222 -0.400000 -0.166667      1.000000
  0.333333 -0.400000 -0.166667      1.000000
  0.444444 -0.400000 -0.166667      1.000000
 -0.444444 -0.400000 -0.166667      1.000000
 -0.333333 -0.400000 -0.166667      1.000000
 -0.222222 -0.400000 -0.166667      1.000000
 -0.111111 -0.400000 -0.166667      1.000000
  0.000000 -0.200000 -0.166667      1.000000
  0.111111 -0.200000 -0.166667      1.000000
  0.222222 -0.200000 -0.166667      1.000000
  0.333333 -0.200000 -0.166667      1.000000
  0.444444 -0.200000 -0.166667      1.000000
 -0.444444 -0.200000 -0.166667      1.000000
 -0.333333 -0.200000 -0.166667      1.000000
 -0.222222 -0.200000 -0.166667      1.000000
 -0.111111 -0.200000 -0.166667      1.000000
 
 Following cartesian coordinates:
            Coordinates               Weight
 -0.000000  0.000000  0.000000      1.000000
  0.019102  0.033350  0.011792      1.000000
  0.038204  0.066699  0.023585      1.000000
  0.057305  0.100049  0.035377      1.000000
  0.076407  0.133398  0.047169      1.000000
 -0.076407 -0.133398 -0.047169      1.000000
 -0.057305 -0.100049 -0.035377      1.000000
 -0.038204 -0.066699 -0.023585      1.000000
 -0.019102 -0.033350 -0.011792      1.000000
 -0.035730  0.020629  0.007644      1.000000
 -0.016628  0.053979  0.019437      1.000000
  0.002474  0.087328  0.031229      1.000000
  0.021575  0.120678  0.043021      1.000000
  0.040677  0.154027  0.054814      1.000000
 -0.112137 -0.112769 -0.039525      1.000000
 -0.093035 -0.079420 -0.027733      1.000000
 -0.073933 -0.046070 -0.015941      1.000000
 -0.054832 -0.012721 -0.004148      1.000000
 -0.071460  0.041258  0.015288      1.000000
 -0.052358  0.074608  0.027081      1.000000
 -0.033256  0.107957  0.038873      1.000000
 -0.014155  0.141307  0.050665      1.000000
  0.004947  0.174656  0.062458      1.000000
 -0.147867 -0.092140 -0.031881      1.000000
 -0.128765 -0.058791 -0.020089      1.000000
 -0.109663 -0.025441 -0.008296      1.000000
 -0.090562  0.007908  0.003496      1.000000
  0.071460 -0.041258 -0.015288      1.000000
  0.090562 -0.007908 -0.003496      1.000000
  0.109663  0.025441  0.008296      1.000000
  0.128765  0.058791  0.020089      1.000000
  0.147867  0.092140  0.031881      1.000000
 -0.004947 -0.174656 -0.062458      1.000000
  0.014155 -0.141307 -0.050665      1.000000
  0.033256 -0.107957 -0.038873      1.000000
  0.052358 -0.074608 -0.027081      1.000000
  0.035730 -0.020629 -0.007644      1.000000
  0.054832  0.012721  0.004148      1.000000
  0.073933  0.046070  0.015941      1.000000
  0.093035  0.079420  0.027733      1.000000
  0.112137  0.112769  0.039525      1.000000
 -0.040677 -0.154027 -0.054814      1.000000
 -0.021575 -0.120678 -0.043021      1.000000
 -0.002474 -0.087328 -0.031229      1.000000
  0.016628 -0.053979 -0.019437      1.000000
 -0.000343  0.000202  0.035363      1.000000
  0.018759  0.033552  0.047156      1.000000
  0.037861  0.066902  0.058948      1.000000
  0.056962  0.100251  0.070740      1.000000
  0.076064  0.133601  0.082533      1.000000
 -0.076750 -0.133196 -0.011806      1.000000
 -0.057648 -0.099846 -0.000014      1.000000
 -0.038546 -0.066497  0.011778      1.000000
 -0.019445 -0.033147  0.023571      1.000000
 -0.036073  0.020831  0.043007      1.000000
 -0.016971  0.054181  0.054800      1.000000
  0.002131  0.087531  0.066592      1.000000
  0.021233  0.120880  0.078384      1.000000
  0.040334  0.154230  0.090177      1.000000
 -0.112480 -0.112567 -0.004162      1.000000
 -0.093378 -0.079217  0.007630      1.000000
 -0.074276 -0.045868  0.019423      1.000000
 -0.055175 -0.012518  0.031215      1.000000
 -0.071803  0.041460  0.050652      1.000000
 -0.052701  0.074810  0.062444      1.000000
 -0.033599  0.108160  0.074236      1.000000
 -0.014497  0.141509  0.086029      1.000000
  0.004604  0.174859  0.097821      1.000000
 -0.148210 -0.091938  0.003482      1.000000
 -0.129108 -0.058588  0.015274      1.000000
 -0.110006 -0.025239  0.027067      1.000000
 -0.090904  0.008111  0.038859      1.000000
  0.071117 -0.041056  0.020075      1.000000
  0.090219 -0.007706  0.031867      1.000000
  0.109320  0.025644  0.043659      1.000000
  0.128422  0.058993  0.055452      1.000000
  0.147524  0.092343  0.067244      1.000000
 -0.005290 -0.174454 -0.027095      1.000000
  0.013812 -0.141104 -0.015302      1.000000
  0.032913 -0.107755 -0.003510      1.000000
  0.052015 -0.074405  0.008282      1.000000
  0.035387 -0.020427  0.027719      1.000000
  0.054489  0.012923  0.039511      1.000000
  0.073591  0.046273  0.051304      1.000000
  0.092692  0.079622  0.063096      1.000000
  0.111794  0.112972  0.074888      1.000000
 -0.041020 -0.153825 -0.019450      1.000000
 -0.021918 -0.120475 -0.007658      1.000000
 -0.002816 -0.087126  0.004134      1.000000
  0.016285 -0.053776  0.015927      1.000000
 -0.000686  0.000405  0.070726      1.000000
  0.018416  0.033754  0.082519      1.000000
  0.037518  0.067104  0.094311      1.000000
  0.056620  0.100454  0.106103      1.000000
  0.075721  0.133803  0.117896      1.000000
 -0.077093 -0.132994  0.023557      1.000000
 -0.057991 -0.099644  0.035349      1.000000
 -0.038889 -0.066294  0.047142      1.000000
 -0.019788 -0.032945  0.058934      1.000000
 -0.036416  0.021034  0.078370      1.000000
 -0.017314  0.054383  0.090163      1.000000
  0.001788  0.087733  0.101955      1.000000
  0.020890  0.121083  0.113748      1.000000
  0.039991  0.154432  0.125540      1.000000
 -0.112823 -0.112365  0.031201      1.000000
 -0.093721 -0.079015  0.042993      1.000000
 -0.074619 -0.045665  0.054786      1.000000
 -0.055517 -0.012316  0.066578      1.000000
 -0.072146  0.041663  0.086015      1.000000
 -0.053044  0.075012  0.097807      1.000000
 -0.033942  0.108362  0.109599      1.000000
 -0.014840  0.141712  0.121392      1.000000
  0.004262  0.175061  0.133184      1.000000
 -0.148553 -0.091736  0.038845      1.000000
 -0.129451 -0.058386  0.050638      1.000000
 -0.110349 -0.025036  0.062430      1.000000
 -0.091247  0.008313  0.074222      1.000000
  0.070774 -0.040853  0.055438      1.000000
  0.089876 -0.007504  0.067230      1.000000
  0.108978  0.025846  0.079023      1.000000
  0.128079  0.059196  0.090815      1.000000
  0.147181  0.092545  0.102607      1.000000
 -0.005633 -0.174252  0.008269      1.000000
  0.013469 -0.140902  0.020061      1.000000
  0.032571 -0.107552  0.031853      1.000000
  0.051672 -0.074203  0.043646      1.000000
  0.035044 -0.020224  0.063082      1.000000
  0.054146  0.013125  0.074874      1.000000
  0.073248  0.046475  0.086667      1.000000
  0.092349  0.079825  0.098459      1.000000
  0.111451  0.113174  0.110252      1.000000
 -0.041363 -0.153623  0.015913      1.000000
 -0.022261 -0.120273  0.027705      1.000000
 -0.003159 -0.086923  0.039497      1.000000
  0.015942 -0.053574  0.051290      1.000000
 -0.001029  0.000607  0.106089      1.000000
  0.018073  0.033957  0.117882      1.000000
  0.037175  0.067306  0.129674      1.000000
  0.056277  0.100656  0.141467      1.000000
  0.075378  0.134006  0.153259      1.000000
 -0.077436 -0.132791  0.058920      1.000000
 -0.058334 -0.099442  0.070712      1.000000
 -0.039232 -0.066092  0.082505      1.000000
 -0.020130 -0.032742  0.094297      1.000000
 -0.036759  0.021236  0.113734      1.000000
 -0.017657  0.054586  0.125526      1.000000
  0.001445  0.087935  0.137318      1.000000
  0.020547  0.121285  0.149111      1.000000
  0.039649  0.154635  0.160903      1.000000
 -0.113166 -0.112162  0.066564      1.000000
 -0.094064 -0.078813  0.078357      1.000000
 -0.074962 -0.045463  0.090149      1.000000
 -0.055860 -0.012113  0.101941      1.000000
 -0.072488  0.041865  0.121378      1.000000
 -0.053387  0.075215  0.133170      1.000000
 -0.034285  0.108564  0.144963      1.000000
 -0.015183  0.141914  0.156755      1.000000
  0.003919  0.175264  0.168547      1.000000
 -0.148896 -0.091533  0.074208      1.000000
 -0.129794 -0.058184  0.086001      1.000000
 -0.110692 -0.024834  0.097793      1.000000
 -0.091590  0.008516  0.109585      1.000000
  0.070431 -0.040651  0.090801      1.000000
  0.089533 -0.007301  0.102593      1.000000
  0.108635  0.026048  0.114386      1.000000
  0.127737  0.059398  0.126178      1.000000
  0.146838  0.092748  0.137971      1.000000
 -0.005976 -0.174049  0.043632      1.000000
  0.013126 -0.140700  0.055424      1.000000
  0.032228 -0.107350  0.067216      1.000000
  0.051329 -0.074000  0.079009      1.000000
  0.034701 -0.020022  0.098445      1.000000
  0.053803  0.013328  0.110238      1.000000
  0.072905  0.046677  0.122030      1.000000
  0.092007  0.080027  0.133822      1.000000
  0.111108  0.113377  0.145615      1.000000
 -0.041706 -0.153420  0.051276      1.000000
 -0.022604 -0.120071  0.063068      1.000000
 -0.003502 -0.086721  0.074861      1.000000
  0.015600 -0.053371  0.086653      1.000000
  0.000686 -0.000405 -0.070726      1.000000
  0.019788  0.032945 -0.058934      1.000000
  0.038889  0.066294 -0.047142      1.000000
  0.057991  0.099644 -0.035349      1.000000
  0.077093  0.132994 -0.023557      1.000000
 -0.075721 -0.133803 -0.117896      1.000000
 -0.056620 -0.100454 -0.106103      1.000000
 -0.037518 -0.067104 -0.094311      1.000000
 -0.018416 -0.033754 -0.082519      1.000000
 -0.035044  0.020224 -0.063082      1.000000
 -0.015942  0.053574 -0.051290      1.000000
  0.003159  0.086923 -0.039497      1.000000
  0.022261  0.120273 -0.027705      1.000000
  0.041363  0.153623 -0.015913      1.000000
 -0.111451 -0.113174 -0.110252      1.000000
 -0.092349 -0.079825 -0.098459      1.000000
 -0.073248 -0.046475 -0.086667      1.000000
 -0.054146 -0.013125 -0.074874      1.000000
 -0.070774  0.040853 -0.055438      1.000000
 -0.051672  0.074203 -0.043646      1.000000
 -0.032571  0.107552 -0.031853      1.000000
 -0.013469  0.140902 -0.020061      1.000000
  0.005633  0.174252 -0.008269      1.000000
 -0.147181 -0.092545 -0.102607      1.000000
 -0.128079 -0.059196 -0.090815      1.000000
 -0.108978 -0.025846 -0.079023      1.000000
 -0.089876  0.007504 -0.067230      1.000000
  0.072146 -0.041663 -0.086015      1.000000
  0.091247 -0.008313 -0.074222      1.000000
  0.110349  0.025036 -0.062430      1.000000
  0.129451  0.058386 -0.050638      1.000000
  0.148553  0.091736 -0.038845      1.000000
 -0.004262 -0.175061 -0.133184      1.000000
  0.014840 -0.141712 -0.121392      1.000000
  0.033942 -0.108362 -0.109599      1.000000
  0.053044 -0.075012 -0.097807      1.000000
  0.036416 -0.021034 -0.078370      1.000000
  0.055517  0.012316 -0.066578      1.000000
  0.074619  0.045665 -0.054786      1.000000
  0.093721  0.079015 -0.042993      1.000000
  0.112823  0.112365 -0.031201      1.000000
 -0.039991 -0.154432 -0.125540      1.000000
 -0.020890 -0.121083 -0.113748      1.000000
 -0.001788 -0.087733 -0.101955      1.000000
  0.017314 -0.054383 -0.090163      1.000000
  0.000343 -0.000202 -0.035363      1.000000
  0.019445  0.033147 -0.023571      1.000000
  0.038546  0.066497 -0.011778      1.000000
  0.057648  0.099846  0.000014      1.000000
  0.076750  0.133196  0.011806      1.000000
 -0.076064 -0.133601 -0.082533      1.000000
 -0.056962 -0.100251 -0.070740      1.000000
 -0.037861 -0.066902 -0.058948      1.000000
 -0.018759 -0.033552 -0.047156      1.000000
 -0.035387  0.020427 -0.027719      1.000000
 -0.016285  0.053776 -0.015927      1.000000
  0.002816  0.087126 -0.004134      1.000000
  0.021918  0.120475  0.007658      1.000000
  0.041020  0.153825  0.019450      1.000000
 -0.111794 -0.112972 -0.074888      1.000000
 -0.092692 -0.079622 -0.063096      1.000000
 -0.073591 -0.046273 -0.051304      1.000000
 -0.054489 -0.012923 -0.039511      1.000000
 -0.071117  0.041056 -0.020075      1.000000
 -0.052015  0.074405 -0.008282      1.000000
 -0.032913  0.107755  0.003510      1.000000
 -0.013812  0.141104  0.015302      1.000000
  0.005290  0.174454  0.027095      1.000000
 -0.147524 -0.092343 -0.067244      1.000000
 -0.128422 -0.058993 -0.055452      1.000000
 -0.109320 -0.025644 -0.043659      1.000000
 -0.090219  0.007706 -0.031867      1.000000
  0.071803 -0.041460 -0.050652      1.000000
  0.090904 -0.008111 -0.038859      1.000000
  0.110006  0.025239 -0.027067      1.000000
  0.129108  0.058588 -0.015274      1.000000
  0.148210  0.091938 -0.003482      1.000000
 -0.004604 -0.174859 -0.097821      1.000000
  0.014497 -0.141509 -0.086029      1.000000
  0.033599 -0.108160 -0.074236      1.000000
  0.052701 -0.074810 -0.062444      1.000000
  0.036073 -0.020831 -0.043007      1.000000
  0.055175  0.012518 -0.031215      1.000000
  0.074276  0.045868 -0.019423      1.000000
  0.093378  0.079217 -0.007630      1.000000
  0.112480  0.112567  0.004162      1.000000
 -0.040334 -0.154230 -0.090177      1.000000
 -0.021233 -0.120880 -0.078384      1.000000
 -0.002131 -0.087531 -0.066592      1.000000
  0.016971 -0.054181 -0.054800      1.000000
 
 TETIRR: Found   1620 inequivalent tetrahedra from     1620


--------------------------------------------------------------------------------------------------------




 Dimension of arrays:
   k-points           NKPTS =    270   k-points in BZ     NKDIM =    270   number of bands    NBANDS=     32
   number of dos      NEDOS =    301   number of ions     NIONS =      8
   non local maximal  LDIM  =      6   non local SUM 2l+1 LMDIM =     18
   total plane-waves  NPLWV =  38400
   max r-space proj   IRMAX =   5974   max aug-charges    IRDMAX= 150621
   dimension x,y,z NGX =    24 NGY =   40 NGZ =   40
   dimension x,y,z NGXF=    48 NGYF=   80 NGZF=   80
   support grid    NGXF=    96 NGYF=  160 NGZF=  160
   ions per type =               2   1   1   4
 NGX,Y,Z   is equivalent  to a cutoff of  13.80, 13.69, 13.26 a.u.
 NGXF,Y,Z  is equivalent  to a cutoff of  27.60, 27.38, 26.51 a.u.


 I would recommend the setting:
   dimension x,y,z NGX =    23 NGY =   39 NGZ =   40
 SYSTEM =  final                                   
 POSCAR =  SCEL2_2_1_1_0_0_0/0                     

 Startparameter for this run:
   NWRITE =      2    write-flag & timer
   PREC   = accura    normal or accurate (medium, high low for compatibility)
   ISTART =      1    job   : 0-new  1-cont  2-samecut
   ICHARG =      0    charge: 1-file 2-atom 10-const
   ISPIN  =      2    spin polarized calculation?
   LNONCOLLINEAR =      F non collinear calculations
   LSORBIT =      F    spin-orbit coupling
   INIWAV =      1    electr: 0-lowe 1-rand  2-diag
   LASPH  =      F    aspherical Exc in radial PAW
   METAGGA=      F    non-selfconsistent MetaGGA calc.

 Electronic Relaxation 1
   ENCUT  =  600.0 eV  44.10 Ry    6.64 a.u.   5.77  9.70 10.02*2*pi/ulx,y,z
   ENINI  =  600.0     initial cutoff
   ENAUG  =  605.4 eV  augmentation charge cutoff
   NELM   =     60;   NELMIN=  2; NELMDL=  0     # of ELM steps 
   EDIFF  = 0.1E-05   stopping-criterion for ELM
   LREAL  =      T    real-space projection
   NLSPLINE    = F    spline interpolate recip. space projectors
   LCOMPAT=      F    compatible to vasp.4.4
   GGA_COMPAT  = T    GGA compatible to vasp.4.4-vasp.4.6
   LMAXPAW     = -100 max onsite density
   LMAXMIX     =    2 max onsite mixed and CHGCAR
   VOSKOWN=      0    Vosko Wilk Nusair interpolation
   ROPT   =   -0.00025  -0.00025  -0.00025  -0.00025
 Ionic relaxation
   EDIFFG = -.2E-01   stopping-criterion for IOM
   NSW    =      0    number of steps for IOM
   NBLOCK =      1;   KBLOCK =      1    inner block; outer block 
   IBRION =     -1    ionic relax: 0-MD 1-quasi-New 2-CG
   NFREE  =      0    steps in history (QN), initial steepest desc. (CG)
   ISIF   =      2    stress and relaxation
   IWAVPR =     10    prediction:  0-non 1-charg 2-wave 3-comb
   ISYM   =     -1    0-nonsym 1-usesym 2-fastsym
   LCORR  =      T    Harris-Foulkes like correction to forces

   POTIM  = 0.5000    time-step for ionic-motion
   TEIN   =    0.0    initial temperature
   TEBEG  =    0.0;   TEEND  =   0.0 temperature during run
   SMASS  =  -3.00    Nose mass-parameter (am)
   estimated Nose-frequenzy (Omega)   =  0.10E-29 period in steps =****** mass=  -0.191E-27a.u.
   SCALEE = 1.0000    scale energy and forces
   NPACO  =    256;   APACO  = 16.0  distance and # of slots for P.C.
   PSTRESS=    0.0 pullay stress

  Mass of Ions in am
   POMASS =   7.01 58.69 58.69 16.00
  Ionic Valenz
   ZVAL   =   1.00 10.00 10.00  6.00
  Atomic Wigner-Seitz radii
   RWIGS  =  -1.00 -1.00 -1.00 -1.00
  virtual crystal weights 
   VCA    =   1.00  1.00  1.00  1.00
   NELECT =      46.0000    total number of electrons
   NUPDOWN=      -1.0000    fix difference up-down

 DOS related values:
   EMIN   =  10.00;   EMAX   =-10.00  energy-range for DOS
   EFERMI =   0.00
   ISMEAR =    -5;   SIGMA  =   0.10  broadening in eV -4-tet -1-fermi 0-gaus

 Electronic relaxation 2 (details)
   IALGO  =     38    algorithm
   LDIAG  =      T    sub-space diagonalisation (order eigenvalues)
   LSUBROT=      F    optimize rotation matrix (better conditioning)
   TURBO    =      0    0=normal 1=particle mesh
   IRESTART =      0    0=no restart 2=restart with 2 vectors
   NREBOOT  =      0    no. of reboots
   NMIN     =      0    reboot dimension
   EREF     =   0.00    reference energy to select bands
   IMIX   =      4    mixing-type and parameters
     AMIX     =   0.40;   BMIX     =  1.00
     AMIX_MAG =   1.60;   BMIX_MAG =  1.00
     AMIN     =   0.10
     WC   =   100.;   INIMIX=   1;  MIXPRE=   1;  MAXMIX= -45

 Intra band minimization:
   WEIMIN = 0.0000     energy-eigenvalue tresh-hold
   EBREAK =  0.78E-08  absolut break condition
   DEPER  =   0.30     relativ break condition  

   TIME   =   0.40     timestep for ELM

  volume/ion in A,a.u.               =       8.27        55.84
  Fermi-wavevector in a.u.,A,eV,Ry     =   1.450082  2.740257 28.609465  2.102736
  Thomas-Fermi vector in A             =   2.567734
 
 Write flags
   LWAVE  =      T    write WAVECAR
   LCHARG =      T    write CHGCAR
   LVTOT  =      F    write LOCPOT, total local potential
   LVHAR  =      F    write LOCPOT, Hartree potential only
   LELF   =      F    write electronic localiz. function (ELF)
   LORBIT =      0    0 simple, 1 ext, 2 COOP (PROOUT)


 Dipole corrections
   LMONO  =      F    monopole corrections only (constant potential shift)
   LDIPOL =      F    correct potential (dipole corrections)
   IDIPOL =      0    1-x, 2-y, 3-z, 4-all directions 
   EPSILON=  1.0000000 bulk dielectric constant

 LDA+U is selected, type is set to LDAUTYPE =  2
   angular momentum for each species LDAUL =    -1    2    2   -1
   U (eV)           for each species LDAUU =   0.0  5.0  5.0  0.0
   J (eV)           for each species LDAUJ =   0.0  0.0  0.0  0.0
 Exchange correlation treatment:
   GGA     =    MK    GGA type
   LEXCH   =    43    internal setting for exchange type
   VOSKOWN=      0    Vosko Wilk Nusair interpolation
   LHFCALC =     F    Hartree Fock is set to
   LHFONE  =     F    Hartree Fock one center treatment
   AEXX    =    0.0000 exact exchange contribution

 vdW DFT:
   LUSE_VDW   =     T    switch on vdW DFT
   Zab_VDW    =-.8491    correlation parameter
   PARAM1     =0.1234
   PARAM2     =1.0000
   PARAM3     =0.0000

 Linear response parameters
   LEPSILON=     F    determine dielectric tensor
   LRPA    =     F    only Hartree local field effects (RPA)
   LNABLA  =     F    use nabla operator in PAW spheres
   LVEL    =     F    velocity operator in full k-point grid
   LINTERFAST=   F  fast interpolation
   KINTER  =     0    interpolate to denser k-point grid
   CSHIFT  =0.1000    complex shift for real part using Kramers Kronig
   OMEGAMAX=  -1.0    maximum frequency
   DEG_THRESHOLD= 0.2000000E-02 threshold for treating states as degnerate
   RTIME   =    0.100 relaxation time in fs

 Orbital magnetization related:
   ORBITALMAG=     F  switch on orbital magnetization
   LCHIMAG   =     F  perturbation theory with respect to B field
   DQ        =  0.001000  dq finite difference perturbation B field



--------------------------------------------------------------------------------------------------------


 Static calculation
 charge density and potential will be updated during run
 spin polarized calculation
 Variant of blocked Davidson
 Davidson routine will perform the subspace rotation
 perform sub-space diagonalisation
    after iterative eigenvector-optimisation
 modified Broyden-mixing scheme, WC =      100.0
 initial mixing is a Kerker type mixing with AMIX =  0.4000 and BMIX =      1.0000
 Hartree-type preconditioning will be used
 using additional bands            9
 real space projection scheme for non local part
 use partial core corrections
 calculate Harris-corrections to forces 
   (improved forces if not selfconsistent)
 use gradient corrections 
 use of overlap-Matrix (Vanderbilt PP)
 Fermi weights with tetrahedron method with Bloechl corrections


--------------------------------------------------------------------------------------------------------


  energy-cutoff  :      600.00
  volume of cell :       66.19
      direct lattice vectors                 reciprocal lattice vectors
     1.445550733  2.503845368 -0.000316695     0.171915945  0.300146487  0.106131147
    -4.206885808  2.428931306 -0.054691308    -0.178649552  0.103144986  0.038220914
     0.034749265 -1.689950731  4.723013323    -0.002057189  0.001214519  0.212178941

  length of vectors
     2.891169080  4.858043498  5.016372777     0.361810484  0.209798448  0.212192389


 
 old parameters found on file WAVECAR:
  energy-cutoff  :      600.00
  volume of cell :       66.19
      direct lattice vectors                 reciprocal lattice vectors
     1.445550733  2.503845368 -0.000316695     0.171915945  0.300146487  0.106131147
    -4.206885808  2.428931306 -0.054691308    -0.178649552  0.103144986  0.038220914
     0.034749265 -1.689950731  4.723013323    -0.002057189  0.001214519  0.212178941

  length of vectors

 
 k-points in units of 2pi/SCALE and weight: Automatic mesh                          
  -0.00000000  0.00000000  0.00000000       0.004
   0.01910177  0.03334961  0.01179235       0.004
   0.03820354  0.06669922  0.02358470       0.004
   0.05730531  0.10004883  0.03537705       0.004
   0.07640709  0.13339844  0.04716940       0.004
  -0.07640709 -0.13339844 -0.04716940       0.004
  -0.05730531 -0.10004883 -0.03537705       0.004
  -0.03820354 -0.06669922 -0.02358470       0.004
  -0.01910177 -0.03334961 -0.01179235       0.004
  -0.03572991  0.02062900  0.00764418       0.004
  -0.01662814  0.05397861  0.01943653       0.004
   0.00247363  0.08732822  0.03122888       0.004
   0.02157540  0.12067783  0.04302123       0.004
   0.04067718  0.15402744  0.05481358       0.004
  -0.11213700 -0.11276944 -0.03952522       0.004
  -0.09303523 -0.07941983 -0.02773287       0.004
  -0.07393345 -0.04607022 -0.01594052       0.004
  -0.05483168 -0.01272061 -0.00414817       0.004
  -0.07145982  0.04125799  0.01528837       0.004
  -0.05235805  0.07460760  0.02708072       0.004
  -0.03325628  0.10795721  0.03887306       0.004
  -0.01415451  0.14130682  0.05066541       0.004
   0.00494727  0.17465643  0.06245776       0.004
  -0.14786691 -0.09214044 -0.03188103       0.004
  -0.12876514 -0.05879083 -0.02008868       0.004
  -0.10966336 -0.02544122 -0.00829633       0.004
  -0.09056159  0.00790838  0.00349602       0.004
   0.07145982 -0.04125799 -0.01528837       0.004
   0.09056159 -0.00790838 -0.00349602       0.004
   0.10966336  0.02544122  0.00829633       0.004
   0.12876514  0.05879083  0.02008868       0.004
   0.14786691  0.09214044  0.03188103       0.004
  -0.00494727 -0.17465643 -0.06245776       0.004
   0.01415451 -0.14130682 -0.05066541       0.004
   0.03325628 -0.10795721 -0.03887306       0.004
   0.05235805 -0.07460760 -0.02708072       0.004
   0.03572991 -0.02062900 -0.00764418       0.004
   0.05483168  0.01272061  0.00414817       0.004
   0.07393345  0.04607022  0.01594052       0.004
   0.09303523  0.07941983  0.02773287       0.004
   0.11213700  0.11276944  0.03952522       0.004
  -0.04067718 -0.15402744 -0.05481358       0.004
  -0.02157540 -0.12067783 -0.04302123       0.004
  -0.00247363 -0.08732822 -0.03122888       0.004
   0.01662814 -0.05397861 -0.01943653       0.004
  -0.00034286  0.00020242  0.03536316       0.004
   0.01875891  0.03355203  0.04715551       0.004
   0.03786068  0.06690164  0.05894786       0.004
   0.05696245  0.10025125  0.07074021       0.004
   0.07606422  0.13360086  0.08253256       0.004
  -0.07674995 -0.13319602 -0.01180624       0.004
  -0.05764818 -0.09984641 -0.00001389       0.004
  -0.03854641 -0.06649680  0.01177846       0.004
  -0.01944464 -0.03314719  0.02357081       0.004
  -0.03607278  0.02083142  0.04300734       0.004
  -0.01697100  0.05418103  0.05479969       0.004
   0.00213077  0.08753064  0.06659204       0.004
   0.02123254  0.12088025  0.07838439       0.004
   0.04033431  0.15422986  0.09017674       0.004
  -0.11247986 -0.11256702 -0.00416206       0.004
  -0.09337809 -0.07921741  0.00763029       0.004
  -0.07427632 -0.04586780  0.01942264       0.004
  -0.05517455 -0.01251819  0.03121499       0.004
  -0.07180269  0.04146041  0.05065152       0.004
  -0.05270091  0.07481002  0.06244387       0.004
  -0.03359914  0.10815963  0.07423622       0.004
  -0.01449737  0.14150924  0.08602857       0.004
   0.00460440  0.17485885  0.09782092       0.004
  -0.14820977 -0.09193802  0.00348212       0.004
  -0.12910800 -0.05858841  0.01527447       0.004
  -0.11000623 -0.02523881  0.02706682       0.004
  -0.09090446  0.00811080  0.03885917       0.004
   0.07111696 -0.04105557  0.02007479       0.004
   0.09021873 -0.00770596  0.03186714       0.004
   0.10932050  0.02564364  0.04365949       0.004
   0.12842227  0.05899325  0.05545184       0.004
   0.14752404  0.09234286  0.06724419       0.004
  -0.00529013 -0.17445401 -0.02709461       0.004
   0.01381164 -0.14110440 -0.01530226       0.004
   0.03291341 -0.10775479 -0.00350991       0.004
   0.05201518 -0.07440518  0.00828244       0.004
   0.03538705 -0.02042658  0.02771897       0.004
   0.05448882  0.01292303  0.03951132       0.004
   0.07359059  0.04627264  0.05130367       0.004
   0.09269236  0.07962225  0.06309602       0.004
   0.11179413  0.11297186  0.07488837       0.004
  -0.04102004 -0.15382502 -0.01945042       0.004
  -0.02191827 -0.12047541 -0.00765808       0.004
  -0.00281650 -0.08712580  0.00413427       0.004
   0.01628527 -0.05377619  0.01592662       0.004
  -0.00068573  0.00040484  0.07072631       0.004
   0.01841604  0.03375445  0.08251866       0.004
   0.03751781  0.06710406  0.09431101       0.004
   0.05661959  0.10045367  0.10610336       0.004
   0.07572136  0.13380328  0.11789571       0.004
  -0.07709282 -0.13299360  0.02355691       0.004
  -0.05799104 -0.09964399  0.03534926       0.004
  -0.03888927 -0.06629438  0.04714161       0.004
  -0.01978750 -0.03294477  0.05893396       0.004
  -0.03641564  0.02103384  0.07837050       0.004
  -0.01731387  0.05438345  0.09016285       0.004
   0.00178790  0.08773306  0.10195520       0.004
   0.02088967  0.12108267  0.11374755       0.004
   0.03999145  0.15443228  0.12553990       0.004
  -0.11282273 -0.11236460  0.03120110       0.004
  -0.09372096 -0.07901499  0.04299345       0.004
  -0.07461918 -0.04566538  0.05478580       0.004
  -0.05551741 -0.01231577  0.06657815       0.004
  -0.07214555  0.04166283  0.08601468       0.004
  -0.05304378  0.07501244  0.09780703       0.004
  -0.03394201  0.10836205  0.10959938       0.004
  -0.01484024  0.14171166  0.12139173       0.004
   0.00426154  0.17506127  0.13318408       0.004
  -0.14855264 -0.09173560  0.03884528       0.004
  -0.12945087 -0.05838599  0.05063763       0.004
  -0.11034909 -0.02503639  0.06242998       0.004
  -0.09124732  0.00831322  0.07422233       0.004
   0.07077409 -0.04085315  0.05543795       0.004
   0.08987586 -0.00750355  0.06723030       0.004
   0.10897763  0.02584606  0.07902265       0.004
   0.12807941  0.05919567  0.09081500       0.004
   0.14718118  0.09254528  0.10260735       0.004
  -0.00563300 -0.17425159  0.00826855       0.004
   0.01346878 -0.14090198  0.02006090       0.004
   0.03257055 -0.10755237  0.03185325       0.004
   0.05167232 -0.07420276  0.04364560       0.004
   0.03504418 -0.02022416  0.06308213       0.004
   0.05414595  0.01312545  0.07487448       0.004
   0.07324772  0.04647506  0.08666683       0.004
   0.09234950  0.07982467  0.09845918       0.004
   0.11145127  0.11317428  0.11025153       0.004
  -0.04136291 -0.15362260  0.01591273       0.004
  -0.02226113 -0.12027299  0.02770508       0.004
  -0.00315936 -0.08692338  0.03949743       0.004
   0.01594241 -0.05357377  0.05128978       0.004
  -0.00102859  0.00060726  0.10608947       0.004
   0.01807318  0.03395687  0.11788182       0.004
   0.03717495  0.06730648  0.12967417       0.004
   0.05627672  0.10065609  0.14146652       0.004
   0.07537849  0.13400570  0.15325887       0.004
  -0.07743568 -0.13279118  0.05892007       0.004
  -0.05833391 -0.09944157  0.07071242       0.004
  -0.03923214 -0.06609196  0.08250477       0.004
  -0.02013037 -0.03274235  0.09429712       0.004
  -0.03675851  0.02123626  0.11373365       0.004
  -0.01765673  0.05458587  0.12552600       0.004
   0.00144504  0.08793548  0.13731835       0.004
   0.02054681  0.12128509  0.14911070       0.004
   0.03964858  0.15463470  0.16090305       0.004
  -0.11316559 -0.11216218  0.06656425       0.004
  -0.09406382 -0.07881257  0.07835660       0.004
  -0.07496205 -0.04546296  0.09014895       0.004
  -0.05586028 -0.01211335  0.10194130       0.004
  -0.07248842  0.04186525  0.12137784       0.004
  -0.05338664  0.07521486  0.13317019       0.004
  -0.03428487  0.10856447  0.14496254       0.004
  -0.01518310  0.14191408  0.15675488       0.004
   0.00391867  0.17526369  0.16854723       0.004
  -0.14889550 -0.09153318  0.07420844       0.004
  -0.12979373 -0.05818358  0.08600079       0.004
  -0.11069196 -0.02483397  0.09779314       0.004
  -0.09159019  0.00851564  0.10958549       0.004
   0.07043123 -0.04065073  0.09080110       0.004
   0.08953300 -0.00730113  0.10259345       0.004
   0.10863477  0.02604848  0.11438580       0.004
   0.12773654  0.05939809  0.12617815       0.004
   0.14683831  0.09274770  0.13797050       0.004
  -0.00597586 -0.17404917  0.04363171       0.004
   0.01312591 -0.14069956  0.05542406       0.004
   0.03222768 -0.10734995  0.06721641       0.004
   0.05132945 -0.07400034  0.07900876       0.004
   0.03470132 -0.02002174  0.09844529       0.004
   0.05380309  0.01332787  0.11023764       0.004
   0.07290486  0.04667748  0.12202999       0.004
   0.09200663  0.08002709  0.13382234       0.004
   0.11110840  0.11337670  0.14561469       0.004
  -0.04170577 -0.15342018  0.05127589       0.004
  -0.02260400 -0.12007057  0.06306824       0.004
  -0.00350223 -0.08672096  0.07486059       0.004
   0.01559954 -0.05337135  0.08665294       0.004
   0.00068573 -0.00040484 -0.07072631       0.004
   0.01978750  0.03294477 -0.05893396       0.004
   0.03888927  0.06629438 -0.04714161       0.004
   0.05799104  0.09964399 -0.03534926       0.004
   0.07709282  0.13299360 -0.02355691       0.004
  -0.07572136 -0.13380328 -0.11789571       0.004
  -0.05661959 -0.10045367 -0.10610336       0.004
  -0.03751781 -0.06710406 -0.09431101       0.004
  -0.01841604 -0.03375445 -0.08251866       0.004
  -0.03504418  0.02022416 -0.06308213       0.004
  -0.01594241  0.05357377 -0.05128978       0.004
   0.00315936  0.08692338 -0.03949743       0.004
   0.02226113  0.12027299 -0.02770508       0.004
   0.04136291  0.15362260 -0.01591273       0.004
  -0.11145127 -0.11317428 -0.11025153       0.004
  -0.09234950 -0.07982467 -0.09845918       0.004
  -0.07324772 -0.04647506 -0.08666683       0.004
  -0.05414595 -0.01312545 -0.07487448       0.004
  -0.07077409  0.04085315 -0.05543795       0.004
  -0.05167232  0.07420276 -0.04364560       0.004
  -0.03257055  0.10755237 -0.03185325       0.004
  -0.01346878  0.14090198 -0.02006090       0.004
   0.00563300  0.17425159 -0.00826855       0.004
  -0.14718118 -0.09254528 -0.10260735       0.004
  -0.12807941 -0.05919567 -0.09081500       0.004
  -0.10897763 -0.02584606 -0.07902265       0.004
  -0.08987586  0.00750355 -0.06723030       0.004
   0.07214555 -0.04166283 -0.08601468       0.004
   0.09124732 -0.00831322 -0.07422233       0.004
   0.11034909  0.02503639 -0.06242998       0.004
   0.12945087  0.05838599 -0.05063763       0.004
   0.14855264  0.09173560 -0.03884528       0.004
  -0.00426154 -0.17506127 -0.13318408       0.004
   0.01484024 -0.14171166 -0.12139173       0.004
   0.03394201 -0.10836205 -0.10959938       0.004
   0.05304378 -0.07501244 -0.09780703       0.004
   0.03641564 -0.02103384 -0.07837050       0.004
   0.05551741  0.01231577 -0.06657815       0.004
   0.07461918  0.04566538 -0.05478580       0.004
   0.09372096  0.07901499 -0.04299345       0.004
   0.11282273  0.11236460 -0.03120110       0.004
  -0.03999145 -0.15443228 -0.12553990       0.004
  -0.02088967 -0.12108267 -0.11374755       0.004
  -0.00178790 -0.08773306 -0.10195520       0.004
   0.01731387 -0.05438345 -0.09016285       0.004
   0.00034286 -0.00020242 -0.03536316       0.004
   0.01944464  0.03314719 -0.02357081       0.004
   0.03854641  0.06649680 -0.01177846       0.004
   0.05764818  0.09984641  0.00001389       0.004
   0.07674995  0.13319602  0.01180624       0.004
  -0.07606422 -0.13360086 -0.08253256       0.004
  -0.05696245 -0.10025125 -0.07074021       0.004
  -0.03786068 -0.06690164 -0.05894786       0.004
  -0.01875891 -0.03355203 -0.04715551       0.004
  -0.03538705  0.02042658 -0.02771897       0.004
  -0.01628527  0.05377619 -0.01592662       0.004
   0.00281650  0.08712580 -0.00413427       0.004
   0.02191827  0.12047541  0.00765808       0.004
   0.04102004  0.15382502  0.01945042       0.004
  -0.11179413 -0.11297186 -0.07488837       0.004
  -0.09269236 -0.07962225 -0.06309602       0.004
  -0.07359059 -0.04627264 -0.05130367       0.004
  -0.05448882 -0.01292303 -0.03951132       0.004
  -0.07111696  0.04105557 -0.02007479       0.004
  -0.05201518  0.07440518 -0.00828244       0.004
  -0.03291341  0.10775479  0.00350991       0.004
  -0.01381164  0.14110440  0.01530226       0.004
   0.00529013  0.17445401  0.02709461       0.004
  -0.14752404 -0.09234286 -0.06724419       0.004
  -0.12842227 -0.05899325 -0.05545184       0.004
  -0.10932050 -0.02564364 -0.04365949       0.004
  -0.09021873  0.00770596 -0.03186714       0.004
   0.07180269 -0.04146041 -0.05065152       0.004
   0.09090446 -0.00811080 -0.03885917       0.004
   0.11000623  0.02523881 -0.02706682       0.004
   0.12910800  0.05858841 -0.01527447       0.004
   0.14820977  0.09193802 -0.00348212       0.004
  -0.00460440 -0.17485885 -0.09782092       0.004
   0.01449737 -0.14150924 -0.08602857       0.004
   0.03359914 -0.10815963 -0.07423622       0.004
   0.05270091 -0.07481002 -0.06244387       0.004
   0.03607278 -0.02083142 -0.04300734       0.004
   0.05517455  0.01251819 -0.03121499       0.004
   0.07427632  0.04586780 -0.01942264       0.004
   0.09337809  0.07921741 -0.00763029       0.004
   0.11247986  0.11256702  0.00416206       0.004
  -0.04033431 -0.15422986 -0.09017674       0.004
  -0.02123254 -0.12088025 -0.07838439       0.004
  -0.00213077 -0.08753064 -0.06659204       0.004
   0.01697100 -0.05418103 -0.05479969       0.004
 
 k-points in reciprocal lattice and weights: Automatic mesh                          
   0.00000000  0.00000000  0.00000000       0.004
   0.11111111  0.00000000  0.00000000       0.004
   0.22222222  0.00000000  0.00000000       0.004
   0.33333333  0.00000000  0.00000000       0.004
   0.44444444  0.00000000  0.00000000       0.004
  -0.44444444  0.00000000  0.00000000       0.004
  -0.33333333  0.00000000  0.00000000       0.004
  -0.22222222  0.00000000  0.00000000       0.004
  -0.11111111  0.00000000  0.00000000       0.004
   0.00000000  0.20000000  0.00000000       0.004
   0.11111111  0.20000000  0.00000000       0.004
   0.22222222  0.20000000  0.00000000       0.004
   0.33333333  0.20000000  0.00000000       0.004
   0.44444444  0.20000000  0.00000000       0.004
  -0.44444444  0.20000000  0.00000000       0.004
  -0.33333333  0.20000000  0.00000000       0.004
  -0.22222222  0.20000000  0.00000000       0.004
  -0.11111111  0.20000000  0.00000000       0.004
   0.00000000  0.40000000  0.00000000       0.004
   0.11111111  0.40000000  0.00000000       0.004
   0.22222222  0.40000000  0.00000000       0.004
   0.33333333  0.40000000  0.00000000       0.004
   0.44444444  0.40000000  0.00000000       0.004
  -0.44444444  0.40000000  0.00000000       0.004
  -0.33333333  0.40000000  0.00000000       0.004
  -0.22222222  0.40000000  0.00000000       0.004
  -0.11111111  0.40000000  0.00000000       0.004
   0.00000000 -0.40000000  0.00000000       0.004
   0.11111111 -0.40000000  0.00000000       0.004
   0.22222222 -0.40000000  0.00000000       0.004
   0.33333333 -0.40000000  0.00000000       0.004
   0.44444444 -0.40000000  0.00000000       0.004
  -0.44444444 -0.40000000  0.00000000       0.004
  -0.33333333 -0.40000000  0.00000000       0.004
  -0.22222222 -0.40000000  0.00000000       0.004
  -0.11111111 -0.40000000  0.00000000       0.004
   0.00000000 -0.20000000  0.00000000       0.004
   0.11111111 -0.20000000  0.00000000       0.004
   0.22222222 -0.20000000  0.00000000       0.004
   0.33333333 -0.20000000  0.00000000       0.004
   0.44444444 -0.20000000  0.00000000       0.004
  -0.44444444 -0.20000000  0.00000000       0.004
  -0.33333333 -0.20000000  0.00000000       0.004
  -0.22222222 -0.20000000  0.00000000       0.004
  -0.11111111 -0.20000000  0.00000000       0.004
   0.00000000  0.00000000  0.16666667       0.004
   0.11111111  0.00000000  0.16666667       0.004
   0.22222222  0.00000000  0.16666667       0.004
   0.33333333  0.00000000  0.16666667       0.004
   0.44444444  0.00000000  0.16666667       0.004
  -0.44444444  0.00000000  0.16666667       0.004
  -0.33333333  0.00000000  0.16666667       0.004
  -0.22222222  0.00000000  0.16666667       0.004
  -0.11111111  0.00000000  0.16666667       0.004
   0.00000000  0.20000000  0.16666667       0.004
   0.11111111  0.20000000  0.16666667       0.004
   0.22222222  0.20000000  0.16666667       0.004
   0.33333333  0.20000000  0.16666667       0.004
   0.44444444  0.20000000  0.16666667       0.004
  -0.44444444  0.20000000  0.16666667       0.004
  -0.33333333  0.20000000  0.16666667       0.004
  -0.22222222  0.20000000  0.16666667       0.004
  -0.11111111  0.20000000  0.16666667       0.004
   0.00000000  0.40000000  0.16666667       0.004
   0.11111111  0.40000000  0.16666667       0.004
   0.22222222  0.40000000  0.16666667       0.004
   0.33333333  0.40000000  0.16666667       0.004
   0.44444444  0.40000000  0.16666667       0.004
  -0.44444444  0.40000000  0.16666667       0.004
  -0.33333333  0.40000000  0.16666667       0.004
  -0.22222222  0.40000000  0.16666667       0.004
  -0.11111111  0.40000000  0.16666667       0.004
   0.00000000 -0.40000000  0.16666667       0.004
   0.11111111 -0.40000000  0.16666667       0.004
   0.22222222 -0.40000000  0.16666667       0.004
   0.33333333 -0.40000000  0.16666667       0.004
   0.44444444 -0.40000000  0.16666667       0.004
  -0.44444444 -0.40000000  0.16666667       0.004
  -0.33333333 -0.40000000  0.16666667       0.004
  -0.22222222 -0.40000000  0.16666667       0.004
  -0.11111111 -0.40000000  0.16666667       0.004
   0.00000000 -0.20000000  0.16666667       0.004
   0.11111111 -0.20000000  0.16666667       0.004
   0.22222222 -0.20000000  0.16666667       0.004
   0.33333333 -0.20000000  0.16666667       0.004
   0.44444444 -0.20000000  0.16666667       0.004
  -0.44444444 -0.20000000  0.16666667       0.004
  -0.33333333 -0.20000000  0.16666667       0.004
  -0.22222222 -0.20000000  0.16666667       0.004
  -0.11111111 -0.20000000  0.16666667       0.004
   0.00000000  0.00000000  0.33333333       0.004
   0.11111111  0.00000000  0.33333333       0.004
   0.22222222  0.00000000  0.33333333       0.004
   0.33333333  0.00000000  0.33333333       0.004
   0.44444444  0.00000000  0.33333333       0.004
  -0.44444444  0.00000000  0.33333333       0.004
  -0.33333333  0.00000000  0.33333333       0.004
  -0.22222222  0.00000000  0.33333333       0.004
  -0.11111111  0.00000000  0.33333333       0.004
   0.00000000  0.20000000  0.33333333       0.004
   0.11111111  0.20000000  0.33333333       0.004
   0.22222222  0.20000000  0.33333333       0.004
   0.33333333  0.20000000  0.33333333       0.004
   0.44444444  0.20000000  0.33333333       0.004
  -0.44444444  0.20000000  0.33333333       0.004
  -0.33333333  0.20000000  0.33333333       0.004
  -0.22222222  0.20000000  0.33333333       0.004
  -0.11111111  0.20000000  0.33333333       0.004
   0.00000000  0.40000000  0.33333333       0.004
   0.11111111  0.40000000  0.33333333       0.004
   0.22222222  0.40000000  0.33333333       0.004
   0.33333333  0.40000000  0.33333333       0.004
   0.44444444  0.40000000  0.33333333       0.004
  -0.44444444  0.40000000  0.33333333       0.004
  -0.33333333  0.40000000  0.33333333       0.004
  -0.22222222  0.40000000  0.33333333       0.004
  -0.11111111  0.40000000  0.33333333       0.004
   0.00000000 -0.40000000  0.33333333       0.004
   0.11111111 -0.40000000  0.33333333       0.004
   0.22222222 -0.40000000  0.33333333       0.004
   0.33333333 -0.40000000  0.33333333       0.004
   0.44444444 -0.40000000  0.33333333       0.004
  -0.44444444 -0.40000000  0.33333333       0.004
  -0.33333333 -0.40000000  0.33333333       0.004
  -0.22222222 -0.40000000  0.33333333       0.004
  -0.11111111 -0.40000000  0.33333333       0.004
   0.00000000 -0.20000000  0.33333333       0.004
   0.11111111 -0.20000000  0.33333333       0.004
   0.22222222 -0.20000000  0.33333333       0.004
   0.33333333 -0.20000000  0.33333333       0.004
   0.44444444 -0.20000000  0.33333333       0.004
[...]
      3     -12.5683      1.00000
      4     -12.3637      1.00000
      5      -1.0201      1.00000
      6      -0.8360      1.00000
      7      -0.6560      1.00000
      8      -0.5609      1.00000
      9      -0.0109      1.00000
     10       0.3955      1.00000
     11       0.6649      1.00000
     12       0.7681      1.00000
     13       1.2410      1.00000
     14       1.6216      1.00000
     15       2.1503      1.00000
     16       2.3852      1.00000
     17       2.6181      1.00000
     18       2.7640      1.00000
     19       2.8528      1.00000
     20       3.4772      1.00000
     21       3.6299      1.00000
     22       3.8354      1.00000
     23       6.4223      0.00000
     24       6.6679      0.00000
     25       7.1394      0.00000
     26       7.2492      0.00000
     27      13.2875      0.00000
     28      13.4215      0.00000
     29      14.8823      0.00000
     30      16.1513      0.00000
     31      17.7037      0.00000
     32      17.8212      0.00000

 k-point   262 :       0.0000   -0.2000   -0.1667
  band No.  band energies     occupation 
      1     -14.0438      1.00000
      2     -12.8677      1.00000
      3     -12.6087      1.00000
      4     -12.3347      1.00000
      5      -1.7265      1.00000
      6      -1.5114      1.00000
      7      -0.2738      1.00000
      8      -0.0912      1.00000
      9       0.0264      1.00000
     10       0.2477      1.00000
     11       0.8359      1.00000
     12       1.3100      1.00000
     13       1.7310      1.00000
     14       1.8473      1.00000
     15       1.9332      1.00000
     16       2.4469      1.00000
     17       2.5533      1.00000
     18       2.9545      1.00000
     19       2.9847      1.00000
     20       3.0879      1.00000
     21       3.7328      1.00000
     22       3.8120      1.00000
     23       6.7130      0.00000
     24       6.7843      0.00000
     25       7.2679      0.00000
     26       7.3815      0.00000
     27      11.8825      0.00000
     28      13.6753      0.00000
     29      13.7210      0.00000
     30      16.2654      0.00000
     31      17.4629      0.00000
     32      18.0047      0.00000

 k-point   263 :       0.1111   -0.2000   -0.1667
  band No.  band energies     occupation 
      1     -13.9745      1.00000
      2     -12.8142      1.00000
      3     -12.5451      1.00000
      4     -12.3365      1.00000
      5      -1.5936      1.00000
      6      -1.5124      1.00000
      7      -0.3274      1.00000
      8      -0.2078      1.00000
      9      -0.0462      1.00000
     10       0.2621      1.00000
     11       0.9430      1.00000
     12       1.1581      1.00000
     13       1.5037      1.00000
     14       1.8177      1.00000
     15       1.9178      1.00000
     16       2.2679      1.00000
     17       2.4654      1.00000
     18       2.7641      1.00000
     19       3.0406      1.00000
     20       3.2107      1.00000
     21       3.7101      1.00000
     22       3.8865      1.00000
     23       6.5617      0.00000
     24       6.8357      0.00000
     25       7.1626      0.00000
     26       7.3295      0.00000
     27      11.9548      0.00000
     28      14.1207      0.00000
     29      14.2137      0.00000
     30      16.5609      0.00000
     31      17.4223      0.00000
     32      17.7846      0.00000

 k-point   264 :       0.2222   -0.2000   -0.1667
  band No.  band energies     occupation 
      1     -13.7315      1.00000
      2     -12.6905      1.00000
      3     -12.4576      1.00000
      4     -12.3327      1.00000
      5      -1.3223      1.00000
      6      -1.2684      1.00000
      7      -0.7388      1.00000
      8      -0.5347      1.00000
      9      -0.1468      1.00000
     10       0.4630      1.00000
     11       0.7134      1.00000
     12       1.0517      1.00000
     13       1.3948      1.00000
     14       1.4990      1.00000
     15       1.7295      1.00000
     16       2.2388      1.00000
     17       2.3482      1.00000
     18       2.4904      1.00000
     19       3.0597      1.00000
     20       3.2292      1.00000
     21       3.5854      1.00000
     22       3.6915      1.00000
     23       6.4828      0.00000
     24       6.8638      0.00000
     25       7.0583      0.00000
     26       7.3269      0.00000
     27      12.4701      0.00000
     28      14.6500      0.00000
     29      15.1334      0.00000
     30      16.6394      0.00000
     31      17.6090      0.00000
     32      17.7871      0.00000

 k-point   265 :       0.3333   -0.2000   -0.1667
  band No.  band energies     occupation 
      1     -13.3695      1.00000
      2     -12.5575      1.00000
      3     -12.4204      1.00000
      4     -12.3316      1.00000
      5      -1.3761      1.00000
      6      -1.2314      1.00000
      7      -0.7857      1.00000
      8      -0.7121      1.00000
      9      -0.2224      1.00000
     10       0.1628      1.00000
     11       0.6316      1.00000
     12       0.9850      1.00000
     13       1.2898      1.00000
     14       1.4798      1.00000
     15       1.6469      1.00000
     16       2.2608      1.00000
     17       2.3377      1.00000
     18       2.4761      1.00000
     19       2.9026      1.00000
     20       3.1417      1.00000
     21       3.2226      1.00000
     22       3.3079      1.00000
     23       6.5222      0.00000
     24       6.8032      0.00000
     25       7.1556      0.00000
     26       7.3458      0.00000
     27      13.2279      0.00000
     28      14.5025      0.00000
     29      15.9744      0.00000
     30      16.5197      0.00000
     31      17.3219      0.00000
     32      17.6879      0.00000

 k-point   266 :       0.4444   -0.2000   -0.1667
  band No.  band energies     occupation 
      1     -12.9792      1.00000
      2     -12.5682      1.00000
      3     -12.4476      1.00000
      4     -12.3316      1.00000
      5      -1.6853      1.00000
      6      -1.4992      1.00000
      7      -0.7451      1.00000
      8      -0.4615      1.00000
      9      -0.2541      1.00000
     10       0.1135      1.00000
     11       0.6452      1.00000
     12       1.0551      1.00000
     13       1.0996      1.00000
     14       1.3467      1.00000
     15       1.9043      1.00000
     16       2.2435      1.00000
     17       2.3665      1.00000
     18       2.5888      1.00000
     19       2.7341      1.00000
     20       2.8298      1.00000
     21       2.9901      1.00000
     22       3.0740      1.00000
     23       6.5196      0.00000
     24       6.7434      0.00000
     25       7.2287      0.00000
     26       7.3916      0.00000
     27      14.0361      0.00000
     28      14.0756      0.00000
     29      16.2657      0.00000
     30      16.7503      0.00000
     31      17.0613      0.00000
     32      17.5216      0.00000

 k-point   267 :      -0.4444   -0.2000   -0.1667
  band No.  band energies     occupation 
      1     -12.8554      1.00000
      2     -12.6663      1.00000
      3     -12.4245      1.00000
      4     -12.3936      1.00000
      5      -1.6551      1.00000
      6      -1.5391      1.00000
      7      -0.7221      1.00000
      8      -0.4831      1.00000
      9      -0.3005      1.00000
     10       0.3211      1.00000
     11       0.7202      1.00000
     12       0.9706      1.00000
     13       1.1537      1.00000
     14       1.3365      1.00000
     15       1.8929      1.00000
     16       2.0205      1.00000
     17       2.4534      1.00000
     18       2.5055      1.00000
     19       2.6922      1.00000
     20       2.9067      1.00000
     21       2.9564      1.00000
     22       3.1455      1.00000
     23       6.5430      0.00000
     24       6.7069      0.00000
     25       7.2318      0.00000
     26       7.3415      0.00000
     27      13.7095      0.00000
     28      14.7929      0.00000
     29      16.3298      0.00000
     30      16.5976      0.00000
     31      17.0938      0.00000
     32      17.3524      0.00000

 k-point   268 :      -0.3333   -0.2000   -0.1667
  band No.  band energies     occupation 
      1     -13.2448      1.00000
      2     -12.5660      1.00000
      3     -12.5314      1.00000
      4     -12.3689      1.00000
      5      -1.3595      1.00000
      6      -1.2414      1.00000
      7      -0.7981      1.00000
      8      -0.5362      1.00000
      9      -0.2534      1.00000
     10       0.2692      1.00000
     11       0.6887      1.00000
     12       1.0759      1.00000
     13       1.3138      1.00000
     14       1.4191      1.00000
     15       1.5339      1.00000
     16       2.0616      1.00000
     17       2.3757      1.00000
     18       2.4401      1.00000
     19       2.8556      1.00000
     20       3.0813      1.00000
     21       3.1595      1.00000
     22       3.4741      1.00000
     23       6.5471      0.00000
     24       6.7453      0.00000
     25       7.1157      0.00000
     26       7.3310      0.00000
     27      13.4487      0.00000
     28      15.0161      0.00000
     29      15.6560      0.00000
     30      16.5432      0.00000
     31      17.1697      0.00000
     32      17.5850      0.00000

 k-point   269 :      -0.2222   -0.2000   -0.1667
  band No.  band energies     occupation 
      1     -13.6350      1.00000
      2     -12.7004      1.00000
      3     -12.5888      1.00000
      4     -12.3226      1.00000
      5      -1.3259      1.00000
      6      -0.9893      1.00000
      7      -0.7247      1.00000
      8      -0.6557      1.00000
      9      -0.0623      1.00000
     10       0.4127      1.00000
     11       0.7847      1.00000
     12       1.0459      1.00000
     13       1.3307      1.00000
     14       1.4691      1.00000
     15       1.7657      1.00000
     16       2.1853      1.00000
     17       2.3667      1.00000
     18       2.4823      1.00000
     19       2.8400      1.00000
     20       3.2338      1.00000
     21       3.4999      1.00000
     22       3.7789      1.00000
     23       6.4949      0.00000
     24       6.8978      0.00000
     25       7.0315      0.00000
     26       7.3603      0.00000
     27      12.9741      0.00000
     28      14.3860      0.00000
     29      14.9479      0.00000
     30      16.7410      0.00000
     31      17.3311      0.00000
     32      17.8624      0.00000

 k-point   270 :      -0.1111   -0.2000   -0.1667
  band No.  band energies     occupation 
      1     -13.9229      1.00000
      2     -12.8246      1.00000
      3     -12.6215      1.00000
      4     -12.3227      1.00000
      5      -1.6161      1.00000
      6      -1.2926      1.00000
      7      -0.4493      1.00000
      8      -0.2459      1.00000
      9       0.0518      1.00000
     10       0.2571      1.00000
     11       0.9380      1.00000
     12       1.1587      1.00000
     13       1.4892      1.00000
     14       1.8870      1.00000
     15       1.9363      1.00000
     16       2.2532      1.00000
     17       2.4440      1.00000
     18       2.7778      1.00000
     19       2.7987      1.00000
     20       3.2151      1.00000
     21       3.6615      1.00000
     22       3.8873      1.00000
     23       6.6219      0.00000
     24       6.8846      0.00000
     25       7.1686      0.00000
     26       7.3651      0.00000
     27      12.3142      0.00000
     28      13.7331      0.00000
     29      14.1515      0.00000
     30      16.6303      0.00000
     31      17.3961      0.00000
     32      17.9640      0.00000


--------------------------------------------------------------------------------------------------------


 soft charge-density along one line, spin component           1
         0         1         2         3         4         5         6         7         8         9
 total charge-density along one line
 
 soft charge-density along one line, spin component           2
         0         1         2         3         4         5         6         7         8         9
 total charge-density along one line
 
 pseudopotential strength for first ion, spin component:           1
  1.194   5.280  -0.004  -0.000  -0.003
  5.280  22.368  -0.016  -0.000  -0.009
 -0.004  -0.016  -0.228  -0.000   0.000
 -0.000  -0.000  -0.000  -0.228   0.000
 -0.003  -0.009   0.000   0.000  -0.228
 pseudopotential strength for first ion, spin component:           2
  1.194   5.279  -0.004  -0.000  -0.002
  5.279  22.362  -0.016  -0.000  -0.009
 -0.004  -0.016  -0.230  -0.000   0.000
 -0.000  -0.000  -0.000  -0.230   0.000
 -0.002  -0.009   0.000   0.000  -0.230
 total augmentation occupancy for first ion, spin component:           1
  0.964  -0.028   0.053   0.000   0.031
 -0.028   0.001  -0.002  -0.000  -0.001
  0.053  -0.002   0.084  -0.001  -0.000
  0.000  -0.000  -0.001   0.096   0.002
  0.031  -0.001  -0.000   0.002   0.084
 total augmentation occupancy for first ion, spin component:           2
  0.026  -0.001   0.006   0.000   0.004
 -0.001   0.000  -0.000  -0.000  -0.000
  0.006  -0.000   0.002  -0.001   0.001
  0.000  -0.000  -0.001   0.003   0.002
  0.004  -0.000   0.001   0.002   0.001


------------------------ aborting loop because EDIFF is reached ----------------------------------------


    CHARGE:  cpu time    1.05: real time    1.05
    FORLOC:  cpu time    0.01: real time    0.01
    FORNL :  cpu time   10.40: real time   10.42
    STRESS:  cpu time   31.12: real time   31.16
    FORCOR:  cpu time    2.41: real time    2.41
    FORHAR:  cpu time    0.01: real time    0.01
    MIXING:  cpu time    0.00: real time    0.00
    OFIELD:  cpu time    0.00: real time    0.00

  FORCE on cell =-STRESS in cart. coord.  units (eV):
  Direction    XX          YY          ZZ          XY          YZ          ZX
  --------------------------------------------------------------------------------------
  Alpha Z   138.90252   138.90252   138.90252
  Ewald    -468.78151  -535.02467 -1758.47307   -57.56257    20.86240   -36.42651
  Hartree   793.67312   762.85585  -228.87473   -26.81117     5.61734    -9.98391
  E(xc)    -235.81622  -235.81740  -235.77911    -0.00119     0.00061    -0.00108
  Local   -1185.18533 -1095.41158  1113.62157    78.04798   -22.56379    39.62897
  n-local  -104.09005  -105.61417  -106.83205    -1.32368     0.88303    -1.54592
  augment   376.96427   380.22606   381.56634     2.83236    -1.68997     2.93340
  Kinetic   684.29902   689.82682   695.82050     4.79907    -3.09912     5.36807
  Fock        0.00000     0.00000     0.00000     0.00000     0.00000     0.00000
  -------------------------------------------------------------------------------------
  Total      -0.03417    -0.05657    -0.04801    -0.01919     0.01050    -0.02698
  in kB      -0.82716    -1.36932    -1.16216    -0.46452     0.25405    -0.65305
  external pressure =       -1.12 kB  Pullay stress =        0.00 kB


 VOLUME and BASIS-vectors are now :
 -----------------------------------------------------------------------------
  energy-cutoff  :      600.00
  volume of cell :       66.19
      direct lattice vectors                 reciprocal lattice vectors
     1.445550733  2.503845368 -0.000316695     0.171915945  0.300146487  0.106131147
    -4.206885808  2.428931306 -0.054691308    -0.178649552  0.103144986  0.038220914
     0.034749265 -1.689950731  4.723013323    -0.002057189  0.001214519  0.212178941

  length of vectors
     2.891169080  4.858043498  5.016372777     0.361810484  0.209798448  0.212192389


 FORCES acting on ions
    electron-ion (+dipol)            ewald-force                    non-local-force                 convergence-correction
 -----------------------------------------------------------------------------------------------
   0.223E+01 0.387E+01 -.434E-02   -.189E+01 -.327E+01 0.472E-02   -.353E+00 -.612E+00 -.756E-03   0.369E-05 -.550E-05 -.412E-05
   -.223E+01 -.387E+01 0.434E-02   0.189E+01 0.327E+01 -.472E-02   0.353E+00 0.612E+00 0.756E-03   -.369E-05 0.550E-05 0.412E-05
   0.368E-06 -.306E-06 -.107E-06   -.357E-06 0.294E-06 0.992E-07   0.622E-08 0.110E-07 -.146E-07   -.181E-07 0.876E-08 -.764E-08
   0.240E-06 0.126E-06 0.428E-07   -.255E-06 -.119E-06 -.536E-07   -.324E-07 0.995E-08 -.749E-09   0.751E-08 -.173E-07 0.716E-08
   0.208E+02 0.701E+01 -.309E+03   -.242E+02 -.823E+01 0.321E+03   0.340E+01 0.124E+01 -.125E+02   0.692E-03 0.314E-03 -.850E-02
   0.434E+01 -.216E+02 -.309E+03   -.498E+01 0.251E+02 0.321E+03   0.632E+00 -.356E+01 -.125E+02   0.408E-03 -.896E-03 -.844E-02
   -.208E+02 -.701E+01 0.309E+03   0.242E+02 0.823E+01 -.321E+03   -.340E+01 -.124E+01 0.125E+02   -.692E-03 -.314E-03 0.850E-02
   -.434E+01 0.216E+02 0.309E+03   0.498E+01 -.251E+02 -.321E+03   -.632E+00 0.356E+01 0.125E+02   -.408E-03 0.896E-03 0.844E-02
 -----------------------------------------------------------------------------------------------
   0.757E-07 -.440E-07 -.558E-07   0.515E-13 0.711E-14 0.568E-13   -.593E-07 0.406E-07 0.333E-07   -.143E-07 -.279E-07 -.133E-07
 
 
 POSITION                                       TOTAL-FORCE (eV/Angst)
 -----------------------------------------------------------------------------------
      0.03472     -1.68985      4.72291        -0.009461     -0.015831     -0.000382
     -1.38064      2.46629     -0.02740         0.009461      0.015831      0.000382
      0.04982      1.64014      2.34760        -0.000000      0.000000     -0.000000
     -2.77640      1.60268      2.32041        -0.000000      0.000000      0.000000
     -1.25070      2.53283      3.37903         0.004743      0.011495      0.001954
      0.00741     -0.14584      3.40664        -0.006966     -0.008637      0.002455
     -2.85655      3.17638      1.26147        -0.004743     -0.011495     -0.001954
     -1.35333      0.92228      1.28887         0.006966      0.008637     -0.002455
 -----------------------------------------------------------------------------------
    total drift:                                0.000000     -0.000000     -0.000000


--------------------------------------------------------------------------------------------------------



  FREE ENERGIE OF THE ION-ELECTRON SYSTEM (eV)
  ---------------------------------------------------
  free  energy   TOTEN  =       -28.87235294 eV

  energy  without entropy=      -28.87235294  energy(sigma->0) =      -28.87235294
 


--------------------------------------------------------------------------------------------------------


    POTLOK:  cpu time    2.52: real time    2.53


--------------------------------------------------------------------------------------------------------


 writing wavefunctions
     LOOP+:  cpu time  111.99: real time  113.21
    4ORBIT:  cpu time    0.00: real time    0.00
 BZINTS: Fermi energy:  4.958423; 46.000000 electrons
         Band energy: -59.943809;  BLOECHL correction:  0.000000

 total amount of memory used by VASP on root node   126566. kBytes
========================================================================

   base      :      30000. kBytes
   nonlr-proj:       4002. kBytes
   fftplans  :       5825. kBytes
   grid      :       6865. kBytes
   one-center:        248. kBytes
   wavefun   :      79626. kBytes
 
  
  
 General timing and accounting informations for this job:
 ========================================================
  
                  Total CPU time used (sec):      122.934
                            User time (sec):      112.371
                          System time (sec):       10.563
                         Elapsed time (sec):      125.295
  
                   Maximum memory used (kb):      271628.
                   Average memory used (kb):           0.
  
                          Minor page faults:      4835250
                          Major page faults:            9
                 Voluntary context switches:          557
