 vasp.5.4.4.18Apr17-6-g9f103f2a35 (build Dec 11 2019 11:48:07) complex          
  
 executed on             LinuxIFC date 2019.12.11  15:56:39
 running on    4 total cores
 distrk:  each k-point on    4 cores,    1 groups
 distr:  one band on NCORES_PER_BAND=   1 cores,    4 groups


--------------------------------------------------------------------------------------------------------


 INCAR:
 POTCAR:    PAW_PBE Li 17Jan2003                  
 POTCAR:    PAW_PBE Ni 02Aug2007                  
 POTCAR:    PAW_PBE O 08Apr2002                   

 ----------------------------------------------------------------------------- 
|                                                                             |
|  ADVICE TO THIS USER RUNNING 'VASP/VAMP'   (HEAR YOUR MASTER'S VOICE ...):  |
|                                                                             |
|      You have switched on vdW-DFT.                                          |
|      This routine was written and supplied by Jiri Klimes.                  |
|      We recommed that you carefully read and cite the following             |
|      publication                                                            |
|      J. Klimes, D.R. Bowler, A. Michelides                                  |
|        J. Phys.: Cond Matt. 22 022201 (2010)                                |
|      J. Klimes, D.R. Bowler, A. Michelides                                  |
|        Phys. Rev. B. 83, 195131 (2011)                                      |
|      and references therein.                                                |
|                                                                             |
 ----------------------------------------------------------------------------- 

 POTCAR:    PAW_PBE Li 17Jan2003                  
   VRHFIN =Li: s1p0                                                             
   LEXCH  = PE                                                                  
   EATOM  =     5.3001 eV,    0.3895 Ry                                         
                                                                                
   TITEL  = PAW_PBE Li 17Jan2003                                                
   LULTRA =        F    use ultrasoft PP ?                                      
   IUNSCR =        1    unscreen: 0-lin 1-nonlin 2-no                           
   RPACOR =    1.500    partial core radius                                     
   POMASS =    7.010; ZVAL   =    1.000    mass and valenz                      
   RCORE  =    2.050    outmost cutoff radius                                   
   RWIGS  =    2.600; RWIGS  =    1.376    wigner-seitz radius (au A)           
   ENMAX  =  140.000; ENMIN  =  100.000 eV                                      
   ICORE  =        2    local potential                                         
   LCOR   =        T    correct aug charges                                     
   LPAW   =        T    paw PP                                                  
   EAUG   =  331.638                                                            
   DEXC   =    0.000                                                            
   RMAX   =    2.098    core radius for proj-oper                               
   RAUG   =    1.300    factor for augmentation sphere                          
   RDEP   =    2.094    radius for radial grids                                 
   RDEPT  =    1.810    core radius for aug-charge                              
                                                                                
   Atomic configuration                                                         
    4 entries                                                                   
     n  l   j            E        occ.                                          
     1  0  0.50       -51.8549   2.0000                                         
     2  0  0.50        -2.8742   1.0000                                         
     2  1  0.50        -1.3606   0.0000                                         
     3  2  1.50        -1.3606   0.0000                                         
   Description                                                                  
     l       E           TYP  RCUT    TYP  RCUT                                 
     0     -2.8742052     23  2.050                                             
     0     27.2116520     23  2.050                                             
     1     -1.3605826     23  2.050                                             
     2     -1.3605826     23  2.050                                             
  local pseudopotential read in
  partial core-charges read in
  partial kinetic energy density read in
  atomic valenz-charges read in
  non local Contribution for L=           0  read in
    real space projection operators read in
  non local Contribution for L=           0  read in
    real space projection operators read in
  non local Contribution for L=           1  read in
    real space projection operators read in
    PAW grid and wavefunctions read in
 
   number of l-projection  operators is LMAX  =           3
   number of lm-projection operators is LMMAX =           5
 
 POTCAR:    PAW_PBE Ni 02Aug2007                  
   VRHFIN =Ni:                                                                  
   LEXCH  = PE                                                                  
   EATOM  =  1077.6739 eV,   79.2068 Ry                                         
                                                                                
   TITEL  = PAW_PBE Ni 02Aug2007                                                
   LULTRA =        F    use ultrasoft PP ?                                      
   IUNSCR =        1    unscreen: 0-lin 1-nonlin 2-no                           
   RPACOR =    2.000    partial core radius                                     
   POMASS =   58.690; ZVAL   =   10.000    mass and valenz                      
   RCORE  =    2.300    outmost cutoff radius                                   
   RWIGS  =    2.430; RWIGS  =    1.286    wigner-seitz radius (au A)           
   ENMAX  =  269.532; ENMIN  =  202.149 eV                                      
   RCLOC  =    1.201    cutoff for local pot                                    
   LCOR   =        T    correct aug charges                                     
   LPAW   =        T    paw PP                                                  
   EAUG   =  544.565                                                            
   DEXC   =    0.000                                                            
   RMAX   =    2.357    core radius for proj-oper                               
   RAUG   =    1.300    factor for augmentation sphere                          
   RDEP   =    2.390    radius for radial grids                                 
   RDEPT  =    1.838    core radius for aug-charge                              
                                                                                
   Atomic configuration                                                         
    9 entries                                                                   
     n  l   j            E        occ.                                          
     1  0  0.50     -8206.4253   2.0000                                         
     2  0  0.50      -976.1748   2.0000                                         
     2  1  1.50      -839.0571   6.0000                                         
     3  0  0.50      -105.9991   2.0000                                         
     3  1  1.50       -66.4603   6.0000                                         
     3  2  2.50        -4.6458   9.0000                                         
     4  0  0.50        -4.4926   1.0000                                         
     4  1  1.50        -4.0817   0.0000                                         
     4  3  2.50        -1.3606   0.0000                                         
   Description                                                                  
     l       E           TYP  RCUT    TYP  RCUT                                 
     2     -4.6457903     23  2.300                                             
     2     -6.0063729     23  2.300                                             
     0     -4.4925590     23  2.300                                             
     0      5.0102601     23  2.300                                             
     1     -2.7211652     23  2.300                                             
     1     16.5183231     23  2.300                                             
  local pseudopotential read in
  partial core-charges read in
  partial kinetic energy density read in
  atomic valenz-charges read in
  non local Contribution for L=           2  read in
    real space projection operators read in
  non local Contribution for L=           2  read in
    real space projection operators read in
  non local Contribution for L=           0  read in
    real space projection operators read in
  non local Contribution for L=           0  read in
    real space projection operators read in
  non local Contribution for L=           1  read in
    real space projection operators read in
  non local Contribution for L=           1  read in
    real space projection operators read in
    PAW grid and wavefunctions read in
 
   number of l-projection  operators is LMAX  =           6
   number of lm-projection operators is LMMAX =          18
 
 POTCAR:    PAW_PBE O 08Apr2002                   
   VRHFIN =O: s2p4                                                              
   LEXCH  = PE                                                                  
   EATOM  =   432.3788 eV,   31.7789 Ry                                         
                                                                                
   TITEL  = PAW_PBE O 08Apr2002                                                 
   LULTRA =        F    use ultrasoft PP ?                                      
   IUNSCR =        1    unscreen: 0-lin 1-nonlin 2-no                           
   RPACOR =    1.200    partial core radius                                     
   POMASS =   16.000; ZVAL   =    6.000    mass and valenz                      
   RCORE  =    1.520    outmost cutoff radius                                   
   RWIGS  =    1.550; RWIGS  =    0.820    wigner-seitz radius (au A)           
   ENMAX  =  400.000; ENMIN  =  300.000 eV                                      
   ICORE  =        2    local potential                                         
   LCOR   =        T    correct aug charges                                     
   LPAW   =        T    paw PP                                                  
   EAUG   =  605.392                                                            
   DEXC   =    0.000                                                            
   RMAX   =    1.553    core radius for proj-oper                               
   RAUG   =    1.300    factor for augmentation sphere                          
   RDEP   =    1.550    radius for radial grids                                 
   RDEPT  =    1.329    core radius for aug-charge                              
                                                                                
   Atomic configuration                                                         
    4 entries                                                                   
     n  l   j            E        occ.                                          
     1  0  0.50      -514.6923   2.0000                                         
     2  0  0.50       -23.9615   2.0000                                         
     2  1  0.50        -9.0305   4.0000                                         
     3  2  1.50        -9.5241   0.0000                                         
   Description                                                                  
     l       E           TYP  RCUT    TYP  RCUT                                 
     0    -23.9615318     23  1.200                                             
     0     -9.5240782     23  1.200                                             
     1     -9.0304911     23  1.520                                             
     1      8.1634956     23  1.520                                             
     2     -9.5240782      7  1.500                                             
  local pseudopotential read in
  partial core-charges read in
  partial kinetic energy density read in
  kinetic energy density of atom read in
  atomic valenz-charges read in
  non local Contribution for L=           0  read in
    real space projection operators read in
  non local Contribution for L=           0  read in
    real space projection operators read in
  non local Contribution for L=           1  read in
    real space projection operators read in
  non local Contribution for L=           1  read in
    real space projection operators read in
    PAW grid and wavefunctions read in
 
   number of l-projection  operators is LMAX  =           4
   number of lm-projection operators is LMMAX =           8
 

 ----------------------------------------------------------------------------- 
|                                                                             |
|  ADVICE TO THIS USER RUNNING 'VASP/VAMP'   (HEAR YOUR MASTER'S VOICE ...):  |
|                                                                             |
|      You have a (more or less) 'small supercell' and for smaller cells      |
|      it is recommended  to use the reciprocal-space projection scheme!      |
|      The real space optimization is not  efficient for small cells and it   |
|      is also less accurate ...                                              |
|      Therefore set LREAL=.FALSE. in the  INCAR file                         |
|                                                                             |
 ----------------------------------------------------------------------------- 

 Optimization of the real space projectors (new method)

 maximal supplied QI-value         = 18.33
 optimisation between [QCUT,QGAM] = [ 12.46, 24.93] = [ 43.51,174.03] Ry 
 Optimized for a Real-space Cutoff    1.16 Angstroem

   l    n(q)    QCUT    max X(q) W(low)/X(q) W(high)/X(q)  e(spline) 
   0      9    12.465    33.825    0.19E-03    0.91E-04    0.59E-07
   0      9    12.465     8.944    0.14E-03    0.70E-04    0.43E-07
   1      8    12.465     4.214    0.55E-04    0.11E-03    0.64E-07
 Optimization of the real space projectors (new method)

 maximal supplied QI-value         = 16.25
 optimisation between [QCUT,QGAM] = [ 12.51, 25.03] = [ 43.85,175.40] Ry 
 Optimized for a Real-space Cutoff    1.35 Angstroem

   l    n(q)    QCUT    max X(q) W(low)/X(q) W(high)/X(q)  e(spline) 
   2      9    12.514    60.317    0.12E-03    0.13E-03    0.35E-06
   2      9    12.514    55.921    0.12E-03    0.13E-03    0.36E-06
   0     10    12.514    51.690    0.20E-03    0.11E-03    0.14E-06
   0     10    12.514    30.015    0.18E-03    0.96E-04    0.13E-06
   1     10    12.514    18.849    0.12E-03    0.67E-04    0.21E-06
   1     10    12.514    14.624    0.11E-03    0.53E-04    0.17E-06
 Optimization of the real space projectors (new method)

 maximal supplied QI-value         = 24.76
 optimisation between [QCUT,QGAM] = [ 12.38, 25.00] = [ 42.90,175.06] Ry 
 Optimized for a Real-space Cutoff    1.16 Angstroem

   l    n(q)    QCUT    max X(q) W(low)/X(q) W(high)/X(q)  e(spline) 
   0      9    12.378    20.381    0.16E-03    0.67E-05    0.31E-06
   0      9    12.378    15.268    0.17E-03    0.81E-05    0.33E-06
   1      8    12.378     5.964    0.20E-03    0.16E-03    0.30E-06
   1      8    12.378     5.382    0.18E-03    0.14E-03    0.26E-06

 ----------------------------------------------------------------------------- 
|                                                                             |
|  ADVICE TO THIS USER RUNNING 'VASP/VAMP'   (HEAR YOUR MASTER'S VOICE ...):  |
|                                                                             |
|      You enforced a specific xc-type in the INCAR file,                     |
|      a different type was found on the POTCAR file                          |
|          I HOPE YOU KNOW, WHAT YOU ARE  DOING                               |
|                                                                             |
 ----------------------------------------------------------------------------- 

  PAW_PBE Li 17Jan2003                  :
 energy of atom  1       EATOM=   -5.3001
 kinetic energy error for atom=    0.0000 (will be added to EATOM!!)
  PAW_PBE Ni 02Aug2007                  :
 energy of atom  2       EATOM=-1077.6739
 kinetic energy error for atom=    0.0019 (will be added to EATOM!!)
  PAW_PBE O 08Apr2002                   :
 energy of atom  3       EATOM= -432.3788
 kinetic energy error for atom=    0.0168 (will be added to EATOM!!)
 
  
 Occupation matrix control coded by Prof. Graeme Watson 
 at Trinity College Dublin
  
 Occupation set for the following atoms 
  
 
 POSCAR: SCEL1_1_1_1_0_0_0/0                     
  positions in direct lattice
  velocities in cartesian coordinates
 exchange correlation table for  LEXCH =       43
   RHO(1)=    0.500       N(1)  =     2000
   RHO(2)=  100.500       N(2)  =     4000
 


--------------------------------------------------------------------------------------------------------


 ion  position               nearest neighbor table
   1  1.000  0.000  1.000-   4 2.08   3 2.08   4 2.08   3 2.08   4 2.12   3 2.12   2 2.84   2 2.84
                             2 2.89   2 2.89   2 2.89   2 2.89
   2  0.500  0.500  0.500-   3 1.88   4 1.88   3 1.88   4 1.88   4 2.11   3 2.11   1 2.84   1 2.84
                             1 2.89   1 2.89   1 2.89   1 2.89
   3  0.727  0.774  0.725-   2 1.88   2 1.88   1 2.08   1 2.08   2 2.11   1 2.12
   4  0.273  0.226  0.275-   2 1.88   2 1.88   1 2.08   1 2.08   2 2.11   1 2.12
 

IMPORTANT INFORMATION: All symmetrisations will be switched off!
NOSYMM: (Re-)initialisation of all symmetry stuff for point group C_1.

 
 
 KPOINTS: Automatic mesh                          

Automatic generation of k-mesh.
 generate k-points for:   10   11    6
Space group operators:
 irot       det(A)        alpha          n_x          n_y          n_z        tau_x        tau_y        tau_z
    1     1.000000     0.000000     1.000000     0.000000     0.000000     0.000000     0.000000     0.000000
 
 Subroutine IBZKPT returns following result:
 ===========================================
 
 Found    660 irreducible k-points:
 
 Following reciprocal coordinates:
            Coordinates               Weight
  0.000000  0.000000  0.000000      1.000000
  0.100000  0.000000  0.000000      1.000000
  0.200000  0.000000 -0.000000      1.000000
  0.300000  0.000000 -0.000000      1.000000
  0.400000  0.000000 -0.000000      1.000000
  0.500000  0.000000 -0.000000      1.000000
 -0.400000 -0.000000  0.000000      1.000000
 -0.300000 -0.000000  0.000000      1.000000
 -0.200000 -0.000000  0.000000      1.000000
 -0.100000 -0.000000 -0.000000      1.000000
 -0.000000  0.090909  0.000000      1.000000
  0.100000  0.090909  0.000000      1.000000
  0.200000  0.090909 -0.000000      1.000000
  0.300000  0.090909 -0.000000      1.000000
  0.400000  0.090909  0.000000      1.000000
  0.500000  0.090909 -0.000000      1.000000
 -0.400000  0.090909  0.000000      1.000000
 -0.300000  0.090909 -0.000000      1.000000
 -0.200000  0.090909  0.000000      1.000000
 -0.100000  0.090909  0.000000      1.000000
 -0.000000  0.181818  0.000000      1.000000
  0.100000  0.181818  0.000000      1.000000
  0.200000  0.181818  0.000000      1.000000
  0.300000  0.181818  0.000000      1.000000
  0.400000  0.181818 -0.000000      1.000000
  0.500000  0.181818 -0.000000      1.000000
 -0.400000  0.181818  0.000000      1.000000
 -0.300000  0.181818  0.000000      1.000000
 -0.200000  0.181818  0.000000      1.000000
 -0.100000  0.181818 -0.000000      1.000000
 -0.000000  0.272727  0.000000      1.000000
  0.100000  0.272727 -0.000000      1.000000
  0.200000  0.272727 -0.000000      1.000000
  0.300000  0.272727 -0.000000      1.000000
  0.400000  0.272727  0.000000      1.000000
  0.500000  0.272727  0.000000      1.000000
 -0.400000  0.272727  0.000000      1.000000
 -0.300000  0.272727  0.000000      1.000000
 -0.200000  0.272727 -0.000000      1.000000
 -0.100000  0.272727  0.000000      1.000000
 -0.000000  0.363636  0.000000      1.000000
  0.100000  0.363636 -0.000000      1.000000
  0.200000  0.363636  0.000000      1.000000
  0.300000  0.363636 -0.000000      1.000000
  0.400000  0.363636  0.000000      1.000000
  0.500000  0.363636  0.000000      1.000000
 -0.400000  0.363636  0.000000      1.000000
 -0.300000  0.363636  0.000000      1.000000
 -0.200000  0.363636  0.000000      1.000000
 -0.100000  0.363636  0.000000      1.000000
 -0.000000  0.454545  0.000000      1.000000
  0.100000  0.454545  0.000000      1.000000
  0.200000  0.454545  0.000000      1.000000
  0.300000  0.454545 -0.000000      1.000000
  0.400000  0.454545 -0.000000      1.000000
  0.500000  0.454545  0.000000      1.000000
 -0.400000  0.454545  0.000000      1.000000
 -0.300000  0.454545  0.000000      1.000000
 -0.200000  0.454545  0.000000      1.000000
 -0.100000  0.454545  0.000000      1.000000
  0.000000 -0.454545  0.000000      1.000000
  0.100000 -0.454545 -0.000000      1.000000
  0.200000 -0.454545  0.000000      1.000000
  0.300000 -0.454545 -0.000000      1.000000
  0.400000 -0.454545  0.000000      1.000000
  0.500000 -0.454545 -0.000000      1.000000
 -0.400000 -0.454545  0.000000      1.000000
 -0.300000 -0.454545  0.000000      1.000000
 -0.200000 -0.454545 -0.000000      1.000000
 -0.100000 -0.454545  0.000000      1.000000
  0.000000 -0.363636  0.000000      1.000000
  0.100000 -0.363636 -0.000000      1.000000
  0.200000 -0.363636  0.000000      1.000000
  0.300000 -0.363636  0.000000      1.000000
  0.400000 -0.363636 -0.000000      1.000000
  0.500000 -0.363636 -0.000000      1.000000
 -0.400000 -0.363636 -0.000000      1.000000
 -0.300000 -0.363636  0.000000      1.000000
 -0.200000 -0.363636  0.000000      1.000000
 -0.100000 -0.363636  0.000000      1.000000
  0.000000 -0.272727 -0.000000      1.000000
  0.100000 -0.272727 -0.000000      1.000000
  0.200000 -0.272727  0.000000      1.000000
  0.300000 -0.272727 -0.000000      1.000000
  0.400000 -0.272727 -0.000000      1.000000
  0.500000 -0.272727 -0.000000      1.000000
 -0.400000 -0.272727 -0.000000      1.000000
 -0.300000 -0.272727  0.000000      1.000000
 -0.200000 -0.272727  0.000000      1.000000
 -0.100000 -0.272727  0.000000      1.000000
  0.000000 -0.181818  0.000000      1.000000
  0.100000 -0.181818  0.000000      1.000000
  0.200000 -0.181818 -0.000000      1.000000
  0.300000 -0.181818 -0.000000      1.000000
  0.400000 -0.181818 -0.000000      1.000000
  0.500000 -0.181818  0.000000      1.000000
 -0.400000 -0.181818  0.000000      1.000000
 -0.300000 -0.181818  0.000000      1.000000
 -0.200000 -0.181818 -0.000000      1.000000
 -0.100000 -0.181818 -0.000000      1.000000
  0.000000 -0.090909  0.000000      1.000000
  0.100000 -0.090909 -0.000000      1.000000
  0.200000 -0.090909 -0.000000      1.000000
  0.300000 -0.090909  0.000000      1.000000
  0.400000 -0.090909  0.000000      1.000000
  0.500000 -0.090909 -0.000000      1.000000
 -0.400000 -0.090909  0.000000      1.000000
 -0.300000 -0.090909  0.000000      1.000000
 -0.200000 -0.090909  0.000000      1.000000
 -0.100000 -0.090909 -0.000000      1.000000
  0.000000  0.000000  0.166667      1.000000
  0.100000  0.000000  0.166667      1.000000
  0.200000 -0.000000  0.166667      1.000000
  0.300000  0.000000  0.166667      1.000000
  0.400000  0.000000  0.166667      1.000000
  0.500000  0.000000  0.166667      1.000000
 -0.400000 -0.000000  0.166667      1.000000
 -0.300000 -0.000000  0.166667      1.000000
 -0.200000 -0.000000  0.166667      1.000000
 -0.100000 -0.000000  0.166667      1.000000
  0.000000  0.090909  0.166667      1.000000
  0.100000  0.090909  0.166667      1.000000
  0.200000  0.090909  0.166667      1.000000
  0.300000  0.090909  0.166667      1.000000
  0.400000  0.090909  0.166667      1.000000
  0.500000  0.090909  0.166667      1.000000
 -0.400000  0.090909  0.166667      1.000000
 -0.300000  0.090909  0.166667      1.000000
 -0.200000  0.090909  0.166667      1.000000
 -0.100000  0.090909  0.166667      1.000000
 -0.000000  0.181818  0.166667      1.000000
  0.100000  0.181818  0.166667      1.000000
  0.200000  0.181818  0.166667      1.000000
  0.300000  0.181818  0.166667      1.000000
  0.400000  0.181818  0.166667      1.000000
  0.500000  0.181818  0.166667      1.000000
 -0.400000  0.181818  0.166667      1.000000
 -0.300000  0.181818  0.166667      1.000000
 -0.200000  0.181818  0.166667      1.000000
 -0.100000  0.181818  0.166667      1.000000
 -0.000000  0.272727  0.166667      1.000000
  0.100000  0.272727  0.166667      1.000000
  0.200000  0.272727  0.166667      1.000000
  0.300000  0.272727  0.166667      1.000000
  0.400000  0.272727  0.166667      1.000000
  0.500000  0.272727  0.166667      1.000000
 -0.400000  0.272727  0.166667      1.000000
 -0.300000  0.272727  0.166667      1.000000
 -0.200000  0.272727  0.166667      1.000000
 -0.100000  0.272727  0.166667      1.000000
 -0.000000  0.363636  0.166667      1.000000
  0.100000  0.363636  0.166667      1.000000
  0.200000  0.363636  0.166667      1.000000
  0.300000  0.363636  0.166667      1.000000
  0.400000  0.363636  0.166667      1.000000
  0.500000  0.363636  0.166667      1.000000
 -0.400000  0.363636  0.166667      1.000000
 -0.300000  0.363636  0.166667      1.000000
 -0.200000  0.363636  0.166667      1.000000
 -0.100000  0.363636  0.166667      1.000000
 -0.000000  0.454545  0.166667      1.000000
  0.100000  0.454545  0.166667      1.000000
  0.200000  0.454545  0.166667      1.000000
  0.300000  0.454545  0.166667      1.000000
  0.400000  0.454545  0.166667      1.000000
  0.500000  0.454545  0.166667      1.000000
 -0.400000  0.454545  0.166667      1.000000
 -0.300000  0.454545  0.166667      1.000000
 -0.200000  0.454545  0.166667      1.000000
 -0.100000  0.454545  0.166667      1.000000
  0.000000 -0.454545  0.166667      1.000000
  0.100000 -0.454545  0.166667      1.000000
  0.200000 -0.454545  0.166667      1.000000
  0.300000 -0.454545  0.166667      1.000000
  0.400000 -0.454545  0.166667      1.000000
  0.500000 -0.454545  0.166667      1.000000
 -0.400000 -0.454545  0.166667      1.000000
 -0.300000 -0.454545  0.166667      1.000000
 -0.200000 -0.454545  0.166667      1.000000
 -0.100000 -0.454545  0.166667      1.000000
  0.000000 -0.363636  0.166667      1.000000
  0.100000 -0.363636  0.166667      1.000000
  0.200000 -0.363636  0.166667      1.000000
  0.300000 -0.363636  0.166667      1.000000
  0.400000 -0.363636  0.166667      1.000000
  0.500000 -0.363636  0.166667      1.000000
 -0.400000 -0.363636  0.166667      1.000000
 -0.300000 -0.363636  0.166667      1.000000
 -0.200000 -0.363636  0.166667      1.000000
 -0.100000 -0.363636  0.166667      1.000000
  0.000000 -0.272727  0.166667      1.000000
  0.100000 -0.272727  0.166667      1.000000
  0.200000 -0.272727  0.166667      1.000000
  0.300000 -0.272727  0.166667      1.000000
  0.400000 -0.272727  0.166667      1.000000
  0.500000 -0.272727  0.166667      1.000000
 -0.400000 -0.272727  0.166667      1.000000
 -0.300000 -0.272727  0.166667      1.000000
 -0.200000 -0.272727  0.166667      1.000000
 -0.100000 -0.272727  0.166667      1.000000
  0.000000 -0.181818  0.166667      1.000000
  0.100000 -0.181818  0.166667      1.000000
  0.200000 -0.181818  0.166667      1.000000
  0.300000 -0.181818  0.166667      1.000000
  0.400000 -0.181818  0.166667      1.000000
  0.500000 -0.181818  0.166667      1.000000
 -0.400000 -0.181818  0.166667      1.000000
 -0.300000 -0.181818  0.166667      1.000000
 -0.200000 -0.181818  0.166667      1.000000
 -0.100000 -0.181818  0.166667      1.000000
  0.000000 -0.090909  0.166667      1.000000
  0.100000 -0.090909  0.166667      1.000000
  0.200000 -0.090909  0.166667      1.000000
  0.300000 -0.090909  0.166667      1.000000
  0.400000 -0.090909  0.166667      1.000000
  0.500000 -0.090909  0.166667      1.000000
 -0.400000 -0.090909  0.166667      1.000000
 -0.300000 -0.090909  0.166667      1.000000
 -0.200000 -0.090909  0.166667      1.000000
 -0.100000 -0.090909  0.166667      1.000000
  0.000000  0.000000  0.333333      1.000000
  0.100000  0.000000  0.333333      1.000000
  0.200000  0.000000  0.333333      1.000000
  0.300000 -0.000000  0.333333      1.000000
  0.400000 -0.000000  0.333333      1.000000
  0.500000  0.000000  0.333333      1.000000
 -0.400000 -0.000000  0.333333      1.000000
 -0.300000 -0.000000  0.333333      1.000000
 -0.200000 -0.000000  0.333333      1.000000
 -0.100000 -0.000000  0.333333      1.000000
 -0.000000  0.090909  0.333333      1.000000
  0.100000  0.090909  0.333333      1.000000
  0.200000  0.090909  0.333333      1.000000
  0.300000  0.090909  0.333333      1.000000
  0.400000  0.090909  0.333333      1.000000
  0.500000  0.090909  0.333333      1.000000
 -0.400000  0.090909  0.333333      1.000000
 -0.300000  0.090909  0.333333      1.000000
 -0.200000  0.090909  0.333333      1.000000
 -0.100000  0.090909  0.333333      1.000000
 -0.000000  0.181818  0.333333      1.000000
  0.100000  0.181818  0.333333      1.000000
  0.200000  0.181818  0.333333      1.000000
  0.300000  0.181818  0.333333      1.000000
  0.400000  0.181818  0.333333      1.000000
  0.500000  0.181818  0.333333      1.000000
 -0.400000  0.181818  0.333333      1.000000
 -0.300000  0.181818  0.333333      1.000000
 -0.200000  0.181818  0.333333      1.000000
 -0.100000  0.181818  0.333333      1.000000
 -0.000000  0.272727  0.333333      1.000000
  0.100000  0.272727  0.333333      1.000000
  0.200000  0.272727  0.333333      1.000000
  0.300000  0.272727  0.333333      1.000000
  0.400000  0.272727  0.333333      1.000000
  0.500000  0.272727  0.333333      1.000000
 -0.400000  0.272727  0.333333      1.000000
 -0.300000  0.272727  0.333333      1.000000
 -0.200000  0.272727  0.333333      1.000000
 -0.100000  0.272727  0.333333      1.000000
 -0.000000  0.363636  0.333333      1.000000
  0.100000  0.363636  0.333333      1.000000
  0.200000  0.363636  0.333333      1.000000
  0.300000  0.363636  0.333333      1.000000
  0.400000  0.363636  0.333333      1.000000
  0.500000  0.363636  0.333333      1.000000
 -0.400000  0.363636  0.333333      1.000000
 -0.300000  0.363636  0.333333      1.000000
 -0.200000  0.363636  0.333333      1.000000
 -0.100000  0.363636  0.333333      1.000000
 -0.000000  0.454545  0.333333      1.000000
  0.100000  0.454545  0.333333      1.000000
  0.200000  0.454545  0.333333      1.000000
  0.300000  0.454545  0.333333      1.000000
  0.400000  0.454545  0.333333      1.000000
  0.500000  0.454545  0.333333      1.000000
 -0.400000  0.454545  0.333333      1.000000
 -0.300000  0.454545  0.333333      1.000000
 -0.200000  0.454545  0.333333      1.000000
 -0.100000  0.454545  0.333333      1.000000
  0.000000 -0.454545  0.333333      1.000000
  0.100000 -0.454545  0.333333      1.000000
  0.200000 -0.454545  0.333333      1.000000
  0.300000 -0.454545  0.333333      1.000000
  0.400000 -0.454545  0.333333      1.000000
  0.500000 -0.454545  0.333333      1.000000
 -0.400000 -0.454545  0.333333      1.000000
 -0.300000 -0.454545  0.333333      1.000000
 -0.200000 -0.454545  0.333333      1.000000
 -0.100000 -0.454545  0.333333      1.000000
  0.000000 -0.363636  0.333333      1.000000
  0.100000 -0.363636  0.333333      1.000000
  0.200000 -0.363636  0.333333      1.000000
  0.300000 -0.363636  0.333333      1.000000
  0.400000 -0.363636  0.333333      1.000000
  0.500000 -0.363636  0.333333      1.000000
 -0.400000 -0.363636  0.333333      1.000000
 -0.300000 -0.363636  0.333333      1.000000
 -0.200000 -0.363636  0.333333      1.000000
 -0.100000 -0.363636  0.333333      1.000000
  0.000000 -0.272727  0.333333      1.000000
  0.100000 -0.272727  0.333333      1.000000
  0.200000 -0.272727  0.333333      1.000000
  0.300000 -0.272727  0.333333      1.000000
  0.400000 -0.272727  0.333333      1.000000
  0.500000 -0.272727  0.333333      1.000000
 -0.400000 -0.272727  0.333333      1.000000
 -0.300000 -0.272727  0.333333      1.000000
 -0.200000 -0.272727  0.333333      1.000000
 -0.100000 -0.272727  0.333333      1.000000
  0.000000 -0.181818  0.333333      1.000000
  0.100000 -0.181818  0.333333      1.000000
  0.200000 -0.181818  0.333333      1.000000
  0.300000 -0.181818  0.333333      1.000000
  0.400000 -0.181818  0.333333      1.000000
  0.500000 -0.181818  0.333333      1.000000
 -0.400000 -0.181818  0.333333      1.000000
 -0.300000 -0.181818  0.333333      1.000000
 -0.200000 -0.181818  0.333333      1.000000
 -0.100000 -0.181818  0.333333      1.000000
  0.000000 -0.090909  0.333333      1.000000
  0.100000 -0.090909  0.333333      1.000000
  0.200000 -0.090909  0.333333      1.000000
  0.300000 -0.090909  0.333333      1.000000
  0.400000 -0.090909  0.333333      1.000000
  0.500000 -0.090909  0.333333      1.000000
 -0.400000 -0.090909  0.333333      1.000000
 -0.300000 -0.090909  0.333333      1.000000
 -0.200000 -0.090909  0.333333      1.000000
 -0.100000 -0.090909  0.333333      1.000000
  0.000000 -0.000000  0.500000      1.000000
  0.100000  0.000000  0.500000      1.000000
  0.200000  0.000000  0.500000      1.000000
  0.300000  0.000000  0.500000      1.000000
  0.400000 -0.000000  0.500000      1.000000
  0.500000  0.000000  0.500000      1.000000
 -0.400000 -0.000000  0.500000      1.000000
 -0.300000  0.000000  0.500000      1.000000
 -0.200000 -0.000000  0.500000      1.000000
 -0.100000 -0.000000  0.500000      1.000000
 -0.000000  0.090909  0.500000      1.000000
  0.100000  0.090909  0.500000      1.000000
  0.200000  0.090909  0.500000      1.000000
  0.300000  0.090909  0.500000      1.000000
  0.400000  0.090909  0.500000      1.000000
  0.500000  0.090909  0.500000      1.000000
 -0.400000  0.090909  0.500000      1.000000
 -0.300000  0.090909  0.500000      1.000000
 -0.200000  0.090909  0.500000      1.000000
 -0.100000  0.090909  0.500000      1.000000
 -0.000000  0.181818  0.500000      1.000000
  0.100000  0.181818  0.500000      1.000000
  0.200000  0.181818  0.500000      1.000000
  0.300000  0.181818  0.500000      1.000000
  0.400000  0.181818  0.500000      1.000000
  0.500000  0.181818  0.500000      1.000000
 -0.400000  0.181818  0.500000      1.000000
 -0.300000  0.181818  0.500000      1.000000
 -0.200000  0.181818  0.500000      1.000000
 -0.100000  0.181818  0.500000      1.000000
 -0.000000  0.272727  0.500000      1.000000
  0.100000  0.272727  0.500000      1.000000
  0.200000  0.272727  0.500000      1.000000
  0.300000  0.272727  0.500000      1.000000
  0.400000  0.272727  0.500000      1.000000
  0.500000  0.272727  0.500000      1.000000
 -0.400000  0.272727  0.500000      1.000000
 -0.300000  0.272727  0.500000      1.000000
 -0.200000  0.272727  0.500000      1.000000
 -0.100000  0.272727  0.500000      1.000000
  0.000000  0.363636  0.500000      1.000000
  0.100000  0.363636  0.500000      1.000000
  0.200000  0.363636  0.500000      1.000000
  0.300000  0.363636  0.500000      1.000000
  0.400000  0.363636  0.500000      1.000000
  0.500000  0.363636  0.500000      1.000000
 -0.400000  0.363636  0.500000      1.000000
 -0.300000  0.363636  0.500000      1.000000
 -0.200000  0.363636  0.500000      1.000000
 -0.100000  0.363636  0.500000      1.000000
 -0.000000  0.454545  0.500000      1.000000
  0.100000  0.454545  0.500000      1.000000
  0.200000  0.454545  0.500000      1.000000
  0.300000  0.454545  0.500000      1.000000
  0.400000  0.454545  0.500000      1.000000
  0.500000  0.454545  0.500000      1.000000
 -0.400000  0.454545  0.500000      1.000000
 -0.300000  0.454545  0.500000      1.000000
 -0.200000  0.454545  0.500000      1.000000
 -0.100000  0.454545  0.500000      1.000000
  0.000000 -0.454545  0.500000      1.000000
  0.100000 -0.454545  0.500000      1.000000
  0.200000 -0.454545  0.500000      1.000000
  0.300000 -0.454545  0.500000      1.000000
  0.400000 -0.454545  0.500000      1.000000
  0.500000 -0.454545  0.500000      1.000000
 -0.400000 -0.454545  0.500000      1.000000
 -0.300000 -0.454545  0.500000      1.000000
 -0.200000 -0.454545  0.500000      1.000000
 -0.100000 -0.454545  0.500000      1.000000
  0.000000 -0.363636  0.500000      1.000000
  0.100000 -0.363636  0.500000      1.000000
  0.200000 -0.363636  0.500000      1.000000
  0.300000 -0.363636  0.500000      1.000000
  0.400000 -0.363636  0.500000      1.000000
  0.500000 -0.363636  0.500000      1.000000
 -0.400000 -0.363636  0.500000      1.000000
 -0.300000 -0.363636  0.500000      1.000000
 -0.200000 -0.363636  0.500000      1.000000
 -0.100000 -0.363636  0.500000      1.000000
  0.000000 -0.272727  0.500000      1.000000
  0.100000 -0.272727  0.500000      1.000000
  0.200000 -0.272727  0.500000      1.000000
  0.300000 -0.272727  0.500000      1.000000
  0.400000 -0.272727  0.500000      1.000000
  0.500000 -0.272727  0.500000      1.000000
 -0.400000 -0.272727  0.500000      1.000000
 -0.300000 -0.272727  0.500000      1.000000
 -0.200000 -0.272727  0.500000      1.000000
 -0.100000 -0.272727  0.500000      1.000000
  0.000000 -0.181818  0.500000      1.000000
  0.100000 -0.181818  0.500000      1.000000
  0.200000 -0.181818  0.500000      1.000000
  0.300000 -0.181818  0.500000      1.000000
  0.400000 -0.181818  0.500000      1.000000
  0.500000 -0.181818  0.500000      1.000000
 -0.400000 -0.181818  0.500000      1.000000
 -0.300000 -0.181818  0.500000      1.000000
 -0.200000 -0.181818  0.500000      1.000000
 -0.100000 -0.181818  0.500000      1.000000
  0.000000 -0.090909  0.500000      1.000000
  0.100000 -0.090909  0.500000      1.000000
  0.200000 -0.090909  0.500000      1.000000
  0.300000 -0.090909  0.500000      1.000000
  0.400000 -0.090909  0.500000      1.000000
  0.500000 -0.090909  0.500000      1.000000
 -0.400000 -0.090909  0.500000      1.000000
 -0.300000 -0.090909  0.500000      1.000000
 -0.200000 -0.090909  0.500000      1.000000
 -0.100000 -0.090909  0.500000      1.000000
 -0.000000 -0.000000 -0.333333      1.000000
  0.100000  0.000000 -0.333333      1.000000
  0.200000  0.000000 -0.333333      1.000000
  0.300000  0.000000 -0.333333      1.000000
  0.400000  0.000000 -0.333333      1.000000
  0.500000  0.000000 -0.333333      1.000000
 -0.400000  0.000000 -0.333333      1.000000
 -0.300000  0.000000 -0.333333      1.000000
 -0.200000 -0.000000 -0.333333      1.000000
 -0.100000 -0.000000 -0.333333      1.000000
 -0.000000  0.090909 -0.333333      1.000000
  0.100000  0.090909 -0.333333      1.000000
  0.200000  0.090909 -0.333333      1.000000
  0.300000  0.090909 -0.333333      1.000000
  0.400000  0.090909 -0.333333      1.000000
  0.500000  0.090909 -0.333333      1.000000
 -0.400000  0.090909 -0.333333      1.000000
 -0.300000  0.090909 -0.333333      1.000000
 -0.200000  0.090909 -0.333333      1.000000
 -0.100000  0.090909 -0.333333      1.000000
 -0.000000  0.181818 -0.333333      1.000000
  0.100000  0.181818 -0.333333      1.000000
  0.200000  0.181818 -0.333333      1.000000
  0.300000  0.181818 -0.333333      1.000000
  0.400000  0.181818 -0.333333      1.000000
  0.500000  0.181818 -0.333333      1.000000
 -0.400000  0.181818 -0.333333      1.000000
 -0.300000  0.181818 -0.333333      1.000000
 -0.200000  0.181818 -0.333333      1.000000
 -0.100000  0.181818 -0.333333      1.000000
 -0.000000  0.272727 -0.333333      1.000000
  0.100000  0.272727 -0.333333      1.000000
  0.200000  0.272727 -0.333333      1.000000
  0.300000  0.272727 -0.333333      1.000000
  0.400000  0.272727 -0.333333      1.000000
  0.500000  0.272727 -0.333333      1.000000
 -0.400000  0.272727 -0.333333      1.000000
 -0.300000  0.272727 -0.333333      1.000000
 -0.200000  0.272727 -0.333333      1.000000
 -0.100000  0.272727 -0.333333      1.000000
 -0.000000  0.363636 -0.333333      1.000000
  0.100000  0.363636 -0.333333      1.000000
  0.200000  0.363636 -0.333333      1.000000
  0.300000  0.363636 -0.333333      1.000000
  0.400000  0.363636 -0.333333      1.000000
  0.500000  0.363636 -0.333333      1.000000
 -0.400000  0.363636 -0.333333      1.000000
 -0.300000  0.363636 -0.333333      1.000000
 -0.200000  0.363636 -0.333333      1.000000
 -0.100000  0.363636 -0.333333      1.000000
 -0.000000  0.454545 -0.333333      1.000000
  0.100000  0.454545 -0.333333      1.000000
  0.200000  0.454545 -0.333333      1.000000
  0.300000  0.454545 -0.333333      1.000000
  0.400000  0.454545 -0.333333      1.000000
  0.500000  0.454545 -0.333333      1.000000
 -0.400000  0.454545 -0.333333      1.000000
 -0.300000  0.454545 -0.333333      1.000000
 -0.200000  0.454545 -0.333333      1.000000
 -0.100000  0.454545 -0.333333      1.000000
  0.000000 -0.454545 -0.333333      1.000000
  0.100000 -0.454545 -0.333333      1.000000
  0.200000 -0.454545 -0.333333      1.000000
  0.300000 -0.454545 -0.333333      1.000000
  0.400000 -0.454545 -0.333333      1.000000
  0.500000 -0.454545 -0.333333      1.000000
 -0.400000 -0.454545 -0.333333      1.000000
 -0.300000 -0.454545 -0.333333      1.000000
 -0.200000 -0.454545 -0.333333      1.000000
 -0.100000 -0.454545 -0.333333      1.000000
  0.000000 -0.363636 -0.333333      1.000000
  0.100000 -0.363636 -0.333333      1.000000
  0.200000 -0.363636 -0.333333      1.000000
  0.300000 -0.363636 -0.333333      1.000000
  0.400000 -0.363636 -0.333333      1.000000
  0.500000 -0.363636 -0.333333      1.000000
 -0.400000 -0.363636 -0.333333      1.000000
 -0.300000 -0.363636 -0.333333      1.000000
 -0.200000 -0.363636 -0.333333      1.000000
 -0.100000 -0.363636 -0.333333      1.000000
  0.000000 -0.272727 -0.333333      1.000000
  0.100000 -0.272727 -0.333333      1.000000
  0.200000 -0.272727 -0.333333      1.000000
  0.300000 -0.272727 -0.333333      1.000000
  0.400000 -0.272727 -0.333333      1.000000
  0.500000 -0.272727 -0.333333      1.000000
 -0.400000 -0.272727 -0.333333      1.000000
 -0.300000 -0.272727 -0.333333      1.000000
 -0.200000 -0.272727 -0.333333      1.000000
 -0.100000 -0.272727 -0.333333      1.000000
  0.000000 -0.181818 -0.333333      1.000000
  0.100000 -0.181818 -0.333333      1.000000
  0.200000 -0.181818 -0.333333      1.000000
  0.300000 -0.181818 -0.333333      1.000000
  0.400000 -0.181818 -0.333333      1.000000
  0.500000 -0.181818 -0.333333      1.000000
 -0.400000 -0.181818 -0.333333      1.000000
 -0.300000 -0.181818 -0.333333      1.000000
 -0.200000 -0.181818 -0.333333      1.000000
 -0.100000 -0.181818 -0.333333      1.000000
  0.000000 -0.090909 -0.333333      1.000000
  0.100000 -0.090909 -0.333333      1.000000
  0.200000 -0.090909 -0.333333      1.000000
  0.300000 -0.090909 -0.333333      1.000000
  0.400000 -0.090909 -0.333333      1.000000
  0.500000 -0.090909 -0.333333      1.000000
 -0.400000 -0.090909 -0.333333      1.000000
 -0.300000 -0.090909 -0.333333      1.000000
 -0.200000 -0.090909 -0.333333      1.000000
 -0.100000 -0.090909 -0.333333      1.000000
 -0.000000 -0.000000 -0.166667      1.000000
  0.100000  0.000000 -0.166667      1.000000
  0.200000  0.000000 -0.166667      1.000000
  0.300000  0.000000 -0.166667      1.000000
  0.400000  0.000000 -0.166667      1.000000
  0.500000  0.000000 -0.166667      1.000000
 -0.400000 -0.000000 -0.166667      1.000000
 -0.300000 -0.000000 -0.166667      1.000000
 -0.200000  0.000000 -0.166667      1.000000
 -0.100000 -0.000000 -0.166667      1.000000
 -0.000000  0.090909 -0.166667      1.000000
  0.100000  0.090909 -0.166667      1.000000
  0.200000  0.090909 -0.166667      1.000000
  0.300000  0.090909 -0.166667      1.000000
  0.400000  0.090909 -0.166667      1.000000
  0.500000  0.090909 -0.166667      1.000000
 -0.400000  0.090909 -0.166667      1.000000
 -0.300000  0.090909 -0.166667      1.000000
 -0.200000  0.090909 -0.166667      1.000000
 -0.100000  0.090909 -0.166667      1.000000
 -0.000000  0.181818 -0.166667      1.000000
  0.100000  0.181818 -0.166667      1.000000
  0.200000  0.181818 -0.166667      1.000000
  0.300000  0.181818 -0.166667      1.000000
  0.400000  0.181818 -0.166667      1.000000
  0.500000  0.181818 -0.166667      1.000000
 -0.400000  0.181818 -0.166667      1.000000
 -0.300000  0.181818 -0.166667      1.000000
 -0.200000  0.181818 -0.166667      1.000000
 -0.100000  0.181818 -0.166667      1.000000
 -0.000000  0.272727 -0.166667      1.000000
  0.100000  0.272727 -0.166667      1.000000
  0.200000  0.272727 -0.166667      1.000000
  0.300000  0.272727 -0.166667      1.000000
  0.400000  0.272727 -0.166667      1.000000
  0.500000  0.272727 -0.166667      1.000000
 -0.400000  0.272727 -0.166667      1.000000
 -0.300000  0.272727 -0.166667      1.000000
 -0.200000  0.272727 -0.166667      1.000000
 -0.100000  0.272727 -0.166667      1.000000
 -0.000000  0.363636 -0.166667      1.000000
  0.100000  0.363636 -0.166667      1.000000
  0.200000  0.363636 -0.166667      1.000000
  0.300000  0.363636 -0.166667      1.000000
  0.400000  0.363636 -0.166667      1.000000
  0.500000  0.363636 -0.166667      1.000000
 -0.400000  0.363636 -0.166667      1.000000
 -0.300000  0.363636 -0.166667      1.000000
 -0.200000  0.363636 -0.166667      1.000000
 -0.100000  0.363636 -0.166667      1.000000
 -0.000000  0.454545 -0.166667      1.000000
  0.100000  0.454545 -0.166667      1.000000
  0.200000  0.454545 -0.166667      1.000000
  0.300000  0.454545 -0.166667      1.000000
  0.400000  0.454545 -0.166667      1.000000
  0.500000  0.454545 -0.166667      1.000000
 -0.400000  0.454545 -0.166667      1.000000
 -0.300000  0.454545 -0.166667      1.000000
 -0.200000  0.454545 -0.166667      1.000000
 -0.100000  0.454545 -0.166667      1.000000
  0.000000 -0.454545 -0.166667      1.000000
  0.100000 -0.454545 -0.166667      1.000000
  0.200000 -0.454545 -0.166667      1.000000
  0.300000 -0.454545 -0.166667      1.000000
  0.400000 -0.454545 -0.166667      1.000000
  0.500000 -0.454545 -0.166667      1.000000
 -0.400000 -0.454545 -0.166667      1.000000
 -0.300000 -0.454545 -0.166667      1.000000
 -0.200000 -0.454545 -0.166667      1.000000
 -0.100000 -0.454545 -0.166667      1.000000
  0.000000 -0.363636 -0.166667      1.000000
  0.100000 -0.363636 -0.166667      1.000000
  0.200000 -0.363636 -0.166667      1.000000
  0.300000 -0.363636 -0.166667      1.000000
  0.400000 -0.363636 -0.166667      1.000000
  0.500000 -0.363636 -0.166667      1.000000
 -0.400000 -0.363636 -0.166667      1.000000
 -0.300000 -0.363636 -0.166667      1.000000
 -0.200000 -0.363636 -0.166667      1.000000
 -0.100000 -0.363636 -0.166667      1.000000
  0.000000 -0.272727 -0.166667      1.000000
  0.100000 -0.272727 -0.166667      1.000000
  0.200000 -0.272727 -0.166667      1.000000
  0.300000 -0.272727 -0.166667      1.000000
  0.400000 -0.272727 -0.166667      1.000000
  0.500000 -0.272727 -0.166667      1.000000
 -0.400000 -0.272727 -0.166667      1.000000
 -0.300000 -0.272727 -0.166667      1.000000
 -0.200000 -0.272727 -0.166667      1.000000
 -0.100000 -0.272727 -0.166667      1.000000
  0.000000 -0.181818 -0.166667      1.000000
  0.100000 -0.181818 -0.166667      1.000000
  0.200000 -0.181818 -0.166667      1.000000
  0.300000 -0.181818 -0.166667      1.000000
  0.400000 -0.181818 -0.166667      1.000000
  0.500000 -0.181818 -0.166667      1.000000
 -0.400000 -0.181818 -0.166667      1.000000
 -0.300000 -0.181818 -0.166667      1.000000
 -0.200000 -0.181818 -0.166667      1.000000
 -0.100000 -0.181818 -0.166667      1.000000
  0.000000 -0.090909 -0.166667      1.000000
  0.100000 -0.090909 -0.166667      1.000000
  0.200000 -0.090909 -0.166667      1.000000
  0.300000 -0.090909 -0.166667      1.000000
  0.400000 -0.090909 -0.166667      1.000000
  0.500000 -0.090909 -0.166667      1.000000
 -0.400000 -0.090909 -0.166667      1.000000
 -0.300000 -0.090909 -0.166667      1.000000
 -0.200000 -0.090909 -0.166667      1.000000
 -0.100000 -0.090909 -0.166667      1.000000
 
 Following cartesian coordinates:
            Coordinates               Weight
  0.000000  0.000000  0.000000      1.000000
  0.033908 -0.019575 -0.006037      1.000000
  0.067816 -0.039149 -0.012073      1.000000
  0.101723 -0.058724 -0.018110      1.000000
  0.135631 -0.078299 -0.024147      1.000000
  0.169539 -0.097873 -0.030183      1.000000
 -0.135631  0.078299  0.024147      1.000000
 -0.101723  0.058724  0.018110      1.000000
 -0.067816  0.039149  0.012073      1.000000
 -0.033908  0.019575  0.006037      1.000000
  0.000913  0.037499 -0.006913      1.000000
  0.034821  0.017925 -0.012950      1.000000
  0.068729 -0.001650 -0.018986      1.000000
  0.102637 -0.021225 -0.025023      1.000000
  0.136544 -0.040799 -0.031060      1.000000
  0.170452 -0.060374 -0.037096      1.000000
 -0.134718  0.115798  0.017233      1.000000
 -0.100810  0.096223  0.011197      1.000000
 -0.066902  0.076649  0.005160      1.000000
 -0.032994  0.057074 -0.000876      1.000000
  0.001827  0.074999 -0.013826      1.000000
  0.035734  0.055424 -0.019863      1.000000
  0.069642  0.035850 -0.025899      1.000000
  0.103550  0.016275 -0.031936      1.000000
  0.137458 -0.003300 -0.037973      1.000000
  0.171366 -0.022874 -0.044009      1.000000
 -0.133804  0.153298  0.010320      1.000000
 -0.099897  0.133723  0.004284      1.000000
 -0.065989  0.114148 -0.001753      1.000000
 -0.032081  0.094574 -0.007790      1.000000
  0.002740  0.112498 -0.020739      1.000000
  0.036648  0.092924 -0.026776      1.000000
  0.070556  0.073349 -0.032813      1.000000
  0.104463  0.053774 -0.038849      1.000000
  0.138371  0.034200 -0.044886      1.000000
  0.172279  0.014625 -0.050922      1.000000
 -0.132891  0.190797  0.003407      1.000000
 -0.098983  0.171222 -0.002629      1.000000
 -0.065076  0.151648 -0.008666      1.000000
 -0.031168  0.132073 -0.014703      1.000000
  0.003653  0.149998 -0.027652      1.000000
  0.037561  0.130423 -0.033689      1.000000
  0.071469  0.110848 -0.039726      1.000000
  0.105377  0.091274 -0.045762      1.000000
  0.139284  0.071699 -0.051799      1.000000
  0.173192  0.052124 -0.057836      1.000000
 -0.131978  0.228297 -0.003506      1.000000
 -0.098070  0.208722 -0.009543      1.000000
 -0.064162  0.189147 -0.015579      1.000000
 -0.030254  0.169573 -0.021616      1.000000
  0.004567  0.187497 -0.034566      1.000000
  0.038474  0.167923 -0.040602      1.000000
  0.072382  0.148348 -0.046639      1.000000
  0.106290  0.128773 -0.052675      1.000000
  0.140198  0.109199 -0.058712      1.000000
  0.174106  0.089624 -0.064749      1.000000
 -0.131064  0.265796 -0.010419      1.000000
 -0.097157  0.246221 -0.016456      1.000000
 -0.063249  0.226647 -0.022492      1.000000
 -0.029341  0.207072 -0.028529      1.000000
 -0.004567 -0.187497  0.034566      1.000000
  0.029341 -0.207072  0.028529      1.000000
  0.063249 -0.226647  0.022492      1.000000
  0.097157 -0.246221  0.016456      1.000000
  0.131064 -0.265796  0.010419      1.000000
  0.164972 -0.285371  0.004382      1.000000
 -0.140198 -0.109199  0.058712      1.000000
 -0.106290 -0.128773  0.052675      1.000000
 -0.072382 -0.148348  0.046639      1.000000
 -0.038474 -0.167923  0.040602      1.000000
 -0.003653 -0.149998  0.027652      1.000000
  0.030254 -0.169573  0.021616      1.000000
  0.064162 -0.189147  0.015579      1.000000
  0.098070 -0.208722  0.009543      1.000000
  0.131978 -0.228297  0.003506      1.000000
  0.165886 -0.247871 -0.002531      1.000000
 -0.139284 -0.071699  0.051799      1.000000
 -0.105377 -0.091274  0.045762      1.000000
 -0.071469 -0.110848  0.039726      1.000000
 -0.037561 -0.130423  0.033689      1.000000
 -0.002740 -0.112498  0.020739      1.000000
  0.031168 -0.132073  0.014703      1.000000
  0.065076 -0.151648  0.008666      1.000000
  0.098983 -0.171222  0.002629      1.000000
  0.132891 -0.190797 -0.003407      1.000000
  0.166799 -0.210372 -0.009444      1.000000
 -0.138371 -0.034200  0.044886      1.000000
 -0.104463 -0.053774  0.038849      1.000000
 -0.070556 -0.073349  0.032813      1.000000
 -0.036648 -0.092924  0.026776      1.000000
 -0.001827 -0.074999  0.013826      1.000000
  0.032081 -0.094574  0.007790      1.000000
  0.065989 -0.114148  0.001753      1.000000
  0.099897 -0.133723 -0.004284      1.000000
  0.133804 -0.153298 -0.010320      1.000000
  0.167712 -0.172872 -0.016357      1.000000
 -0.137458  0.003300  0.037973      1.000000
 -0.103550 -0.016275  0.031936      1.000000
 -0.069642 -0.035850  0.025899      1.000000
 -0.035734 -0.055424  0.019863      1.000000
 -0.000913 -0.037499  0.006913      1.000000
  0.032994 -0.057074  0.000876      1.000000
  0.066902 -0.076649 -0.005160      1.000000
  0.100810 -0.096223 -0.011197      1.000000
  0.134718 -0.115798 -0.017233      1.000000
  0.168626 -0.135373 -0.023270      1.000000
 -0.136544  0.040799  0.031060      1.000000
 -0.102637  0.021225  0.025023      1.000000
 -0.068729  0.001650  0.018986      1.000000
 -0.034821 -0.017925  0.012950      1.000000
  0.000520 -0.000300  0.035408      1.000000
  0.034428 -0.019874  0.029372      1.000000
  0.068336 -0.039449  0.023335      1.000000
  0.102244 -0.059024  0.017299      1.000000
  0.136151 -0.078599  0.011262      1.000000
  0.170059 -0.098173  0.005225      1.000000
 -0.135111  0.077999  0.059555      1.000000
 -0.101203  0.058424  0.053518      1.000000
 -0.067295  0.038850  0.047482      1.000000
 -0.033387  0.019275  0.041445      1.000000
  0.001434  0.037200  0.028495      1.000000
  0.035341  0.017625  0.022459      1.000000
  0.069249 -0.001950  0.016422      1.000000
  0.103157 -0.021524  0.010385      1.000000
  0.137065 -0.041099  0.004349      1.000000
  0.170973 -0.060674 -0.001688      1.000000
 -0.134197  0.115498  0.052642      1.000000
 -0.100290  0.095924  0.046605      1.000000
 -0.066382  0.076349  0.040569      1.000000
 -0.032474  0.056774  0.034532      1.000000
  0.002347  0.074699  0.021582      1.000000
  0.036255  0.055124  0.015546      1.000000
  0.070163  0.035550  0.009509      1.000000
  0.104070  0.015975  0.003472      1.000000
  0.137978 -0.003600 -0.002564      1.000000
  0.171886 -0.023174 -0.008601      1.000000
 -0.133284  0.152998  0.045729      1.000000
 -0.099376  0.133423  0.039692      1.000000
 -0.065469  0.113848  0.033656      1.000000
 -0.031561  0.094274  0.027619      1.000000
  0.003260  0.112199  0.014669      1.000000
  0.037168  0.092624  0.008633      1.000000
  0.071076  0.073049  0.002596      1.000000
  0.104984  0.053475 -0.003441      1.000000
  0.138891  0.033900 -0.009477      1.000000
  0.172799  0.014325 -0.015514      1.000000
 -0.132371  0.190497  0.038816      1.000000
 -0.098463  0.170923  0.032779      1.000000
 -0.064555  0.151348  0.026742      1.000000
 -0.030647  0.131773  0.020706      1.000000
  0.004174  0.149698  0.007756      1.000000
  0.038081  0.130123  0.001719      1.000000
  0.071989  0.110549 -0.004317      1.000000
  0.105897  0.090974 -0.010354      1.000000
  0.139805  0.071399 -0.016391      1.000000
  0.173713  0.051825 -0.022427      1.000000
 -0.131457  0.227997  0.031903      1.000000
 -0.097550  0.208422  0.025866      1.000000
 -0.063642  0.188847  0.019829      1.000000
 -0.029734  0.169273  0.013793      1.000000
  0.005087  0.187197  0.000843      1.000000
  0.038995  0.167623 -0.005194      1.000000
  0.072903  0.148048 -0.011230      1.000000
  0.106810  0.128473 -0.017267      1.000000
  0.140718  0.108899 -0.023304      1.000000
  0.174626  0.089324 -0.029340      1.000000
 -0.130544  0.265496  0.024989      1.000000
 -0.096636  0.245921  0.018953      1.000000
 -0.062729  0.226347  0.012916      1.000000
 -0.028821  0.206772  0.006880      1.000000
 -0.004046 -0.187797  0.069974      1.000000
  0.029861 -0.207372  0.063937      1.000000
  0.063769 -0.226946  0.057901      1.000000
  0.097677 -0.246521  0.051864      1.000000
  0.131585 -0.266096  0.045827      1.000000
  0.165493 -0.285670  0.039791      1.000000
 -0.139677 -0.109498  0.094121      1.000000
 -0.105770 -0.129073  0.088084      1.000000
 -0.071862 -0.148648  0.082047      1.000000
 -0.037954 -0.168222  0.076011      1.000000
 -0.003133 -0.150298  0.063061      1.000000
  0.030775 -0.169872  0.057024      1.000000
  0.064683 -0.189447  0.050988      1.000000
  0.098590 -0.209022  0.044951      1.000000
  0.132498 -0.228596  0.038914      1.000000
  0.166406 -0.248171  0.032878      1.000000
 -0.138764 -0.071999  0.087207      1.000000
 -0.104856 -0.091574  0.081171      1.000000
 -0.070949 -0.111148  0.075134      1.000000
 -0.037041 -0.130723  0.069098      1.000000
 -0.002220 -0.112798  0.056148      1.000000
  0.031688 -0.132373  0.050111      1.000000
  0.065596 -0.151948  0.044075      1.000000
  0.099504 -0.171522  0.038038      1.000000
  0.133411 -0.191097  0.032001      1.000000
  0.167319 -0.210672  0.025965      1.000000
 -0.137851 -0.034500  0.080294      1.000000
 -0.103943 -0.054074  0.074258      1.000000
 -0.070035 -0.073649  0.068221      1.000000
 -0.036127 -0.093224  0.062184      1.000000
 -0.001306 -0.075299  0.049235      1.000000
  0.032601 -0.094873  0.043198      1.000000
  0.066509 -0.114448  0.037161      1.000000
  0.100417 -0.134023  0.031125      1.000000
  0.134325 -0.153597  0.025088      1.000000
  0.168233 -0.173172  0.019052      1.000000
 -0.136937  0.003000  0.073381      1.000000
 -0.103030 -0.016575  0.067345      1.000000
 -0.069122 -0.036149  0.061308      1.000000
 -0.035214 -0.055724  0.055271      1.000000
 -0.000393 -0.037799  0.042322      1.000000
  0.033515 -0.057374  0.036285      1.000000
  0.067423 -0.076949  0.030248      1.000000
  0.101330 -0.096523  0.024212      1.000000
  0.135238 -0.116098  0.018175      1.000000
  0.169146 -0.135673  0.012138      1.000000
 -0.136024  0.040499  0.066468      1.000000
 -0.102116  0.020925  0.060431      1.000000
 -0.068209  0.001350  0.054395      1.000000
 -0.034301 -0.018225  0.048358      1.000000
  0.001041 -0.000600  0.070817      1.000000
  0.034948 -0.020174  0.064780      1.000000
  0.068856 -0.039749  0.058744      1.000000
  0.102764 -0.059324  0.052707      1.000000
  0.136672 -0.078898  0.046670      1.000000
  0.170580 -0.098473  0.040634      1.000000
 -0.134590  0.077699  0.094963      1.000000
 -0.100683  0.058124  0.088927      1.000000
 -0.066775  0.038550  0.082890      1.000000
 -0.032867  0.018975  0.076854      1.000000
  0.001954  0.036900  0.063904      1.000000
  0.035862  0.017325  0.057867      1.000000
  0.069770 -0.002250  0.051831      1.000000
  0.103677 -0.021824  0.045794      1.000000
  0.137585 -0.041399  0.039757      1.000000
  0.171493 -0.060974  0.033721      1.000000
 -0.133677  0.115198  0.088050      1.000000
 -0.099769  0.095624  0.082014      1.000000
 -0.065862  0.076049  0.075977      1.000000
 -0.031954  0.056474  0.069940      1.000000
  0.002867  0.074399  0.056991      1.000000
  0.036775  0.054825  0.050954      1.000000
  0.070683  0.035250  0.044917      1.000000
  0.104591  0.015675  0.038881      1.000000
  0.138498 -0.003899  0.032844      1.000000
  0.172406 -0.023474  0.026808      1.000000
 -0.132764  0.152698  0.081137      1.000000
 -0.098856  0.133123  0.075101      1.000000
 -0.064948  0.113549  0.069064      1.000000
 -0.031040  0.093974  0.063027      1.000000
  0.003781  0.111899  0.050078      1.000000
  0.037688  0.092324  0.044041      1.000000
  0.071596  0.072749  0.038004      1.000000
  0.105504  0.053175  0.031968      1.000000
  0.139412  0.033600  0.025931      1.000000
  0.173320  0.014025  0.019894      1.000000
 -0.131850  0.190197  0.074224      1.000000
 -0.097943  0.170623  0.068187      1.000000
 -0.064035  0.151048  0.062151      1.000000
 -0.030127  0.131473  0.056114      1.000000
  0.004694  0.149398  0.043164      1.000000
  0.038602  0.129824  0.037128      1.000000
  0.072510  0.110249  0.031091      1.000000
  0.106417  0.090674  0.025055      1.000000
  0.140325  0.071100  0.019018      1.000000
  0.174233  0.051525  0.012981      1.000000
 -0.130937  0.227697  0.067311      1.000000
 -0.097029  0.208122  0.061274      1.000000
 -0.063122  0.188548  0.055238      1.000000
 -0.029214  0.168973  0.049201      1.000000
  0.005607  0.186898  0.036251      1.000000
  0.039515  0.167323  0.030215      1.000000
  0.073423  0.147748  0.024178      1.000000
  0.107331  0.128174  0.018141      1.000000
  0.141238  0.108599  0.012105      1.000000
  0.175146  0.089024  0.006068      1.000000
 -0.130024  0.265196  0.060398      1.000000
 -0.096116  0.245622  0.054361      1.000000
 -0.062208  0.226047  0.048325      1.000000
 -0.028301  0.206472  0.042288      1.000000
 -0.003526 -0.188097  0.105382      1.000000
  0.030382 -0.207672  0.099346      1.000000
  0.064290 -0.227246  0.093309      1.000000
  0.098197 -0.246821  0.087273      1.000000
  0.132105 -0.266396  0.081236      1.000000
  0.166013 -0.285970  0.075199      1.000000
 -0.139157 -0.109798  0.129529      1.000000
 -0.105249 -0.129373  0.123492      1.000000
 -0.071342 -0.148948  0.117456      1.000000
 -0.037434 -0.168522  0.111419      1.000000
 -0.002613 -0.150597  0.098469      1.000000
  0.031295 -0.170172  0.092433      1.000000
  0.065203 -0.189747  0.086396      1.000000
  0.099111 -0.209321  0.080359      1.000000
  0.133018 -0.228896  0.074323      1.000000
  0.166926 -0.248471  0.068286      1.000000
 -0.138244 -0.072299  0.122616      1.000000
 -0.104336 -0.091873  0.116579      1.000000
 -0.070428 -0.111448  0.110543      1.000000
 -0.036520 -0.131023  0.104506      1.000000
 -0.001699 -0.113098  0.091556      1.000000
  0.032208 -0.132673  0.085520      1.000000
  0.066116 -0.152247  0.079483      1.000000
  0.100024 -0.171822  0.073446      1.000000
  0.133932 -0.191397  0.067410      1.000000
  0.167840 -0.210971  0.061373      1.000000
 -0.137330 -0.034799  0.115703      1.000000
 -0.103423 -0.054374  0.109666      1.000000
 -0.069515 -0.073949  0.103630      1.000000
 -0.035607 -0.093523  0.097593      1.000000
 -0.000786 -0.075599  0.084643      1.000000
  0.033122 -0.095173  0.078607      1.000000
  0.067030 -0.114748  0.072570      1.000000
  0.100937 -0.134323  0.066533      1.000000
  0.134845 -0.153897  0.060497      1.000000
  0.168753 -0.173472  0.054460      1.000000
 -0.136417  0.002700  0.108790      1.000000
 -0.102509 -0.016875  0.102753      1.000000
 -0.068602 -0.036449  0.096716      1.000000
 -0.034694 -0.056024  0.090680      1.000000
  0.000127 -0.038099  0.077730      1.000000
  0.034035 -0.057674  0.071693      1.000000
  0.067943 -0.077248  0.065657      1.000000
  0.101851 -0.096823  0.059620      1.000000
  0.135758 -0.116398  0.053584      1.000000
  0.169666 -0.135972  0.047547      1.000000
 -0.135504  0.040200  0.101877      1.000000
 -0.101596  0.020625  0.095840      1.000000
 -0.067688  0.001050  0.089803      1.000000
 -0.033780 -0.018524  0.083767      1.000000
  0.001561 -0.000899  0.106225      1.000000
  0.035469 -0.020474  0.100189      1.000000
  0.069377 -0.040049  0.094152      1.000000
  0.103284 -0.059623  0.088115      1.000000
  0.137192 -0.079198  0.082079      1.000000
  0.171100 -0.098773  0.076042      1.000000
 -0.134070  0.077399  0.130372      1.000000
 -0.100162  0.057825  0.124335      1.000000
 -0.066255  0.038250  0.118299      1.000000
 -0.032347  0.018675  0.112262      1.000000
  0.002474  0.036600  0.099312      1.000000
  0.036382  0.017025  0.093276      1.000000
  0.070290 -0.002549  0.087239      1.000000
  0.104198 -0.022124  0.081202      1.000000
  0.138105 -0.041699  0.075166      1.000000
  0.172013 -0.061273  0.069129      1.000000
 -0.133157  0.114899  0.123459      1.000000
 -0.099249  0.095324  0.117422      1.000000
 -0.065341  0.075749  0.111386      1.000000
 -0.031433  0.056175  0.105349      1.000000
  0.003388  0.074099  0.092399      1.000000
  0.037295  0.054525  0.086363      1.000000
  0.071203  0.034950  0.080326      1.000000
  0.105111  0.015375  0.074289      1.000000
  0.139019 -0.004199  0.068253      1.000000
  0.172927 -0.023774  0.062216      1.000000
 -0.132244  0.152398  0.116546      1.000000
 -0.098336  0.132823  0.110509      1.000000
 -0.064428  0.113249  0.104472      1.000000
 -0.030520  0.093674  0.098436      1.000000
  0.004301  0.111599  0.085486      1.000000
  0.038209  0.092024  0.079449      1.000000
  0.072116  0.072450  0.073413      1.000000
  0.106024  0.052875  0.067376      1.000000
  0.139932  0.033300  0.061340      1.000000
  0.173840  0.013726  0.055303      1.000000
 -0.131330  0.189898  0.109633      1.000000
 -0.097422  0.170323  0.103596      1.000000
 -0.063515  0.150748  0.097559      1.000000
 -0.029607  0.131174  0.091523      1.000000
  0.005214  0.149098  0.078573      1.000000
  0.039122  0.129524  0.072536      1.000000
  0.073030  0.109949  0.066500      1.000000
  0.106938  0.090374  0.060463      1.000000
  0.140845  0.070800  0.054426      1.000000
  0.174753  0.051225  0.048390      1.000000
 -0.130417  0.227397  0.102719      1.000000
 -0.096509  0.207822  0.096683      1.000000
 -0.062601  0.188248  0.090646      1.000000
 -0.028694  0.168673  0.084610      1.000000
  0.006128  0.186598  0.071660      1.000000
  0.040035  0.167023  0.065623      1.000000
  0.073943  0.147448  0.059587      1.000000
  0.107851  0.127874  0.053550      1.000000
  0.141759  0.108299  0.047513      1.000000
  0.175666  0.088724  0.041477      1.000000
 -0.129504  0.264897  0.095806      1.000000
 -0.095596  0.245322  0.089770      1.000000
 -0.061688  0.225747  0.083733      1.000000
 -0.027780  0.206172  0.077696      1.000000
 -0.003006 -0.188397  0.140791      1.000000
  0.030902 -0.207971  0.134754      1.000000
  0.064810 -0.227546  0.128718      1.000000
  0.098718 -0.247121  0.122681      1.000000
  0.132625 -0.266695  0.116644      1.000000
  0.166533 -0.286270  0.110608      1.000000
 -0.138637 -0.110098  0.164937      1.000000
 -0.104729 -0.129673  0.158901      1.000000
 -0.070821 -0.149247  0.152864      1.000000
 -0.036913 -0.168822  0.146828      1.000000
 -0.002092 -0.150897  0.133878      1.000000
  0.031815 -0.170472  0.127841      1.000000
  0.065723 -0.190047  0.121805      1.000000
  0.099631 -0.209621  0.115768      1.000000
  0.133539 -0.229196  0.109731      1.000000
  0.167447 -0.248771  0.103695      1.000000
 -0.137723 -0.072599  0.158024      1.000000
 -0.103816 -0.092173  0.151988      1.000000
 -0.069908 -0.111748  0.145951      1.000000
 -0.036000 -0.131323  0.139914      1.000000
 -0.001179 -0.113398  0.126965      1.000000
  0.032729 -0.132973  0.120928      1.000000
  0.066637 -0.152547  0.114891      1.000000
  0.100544 -0.172122  0.108855      1.000000
  0.134452 -0.191697  0.102818      1.000000
  0.168360 -0.211271  0.096782      1.000000
 -0.136810 -0.035099  0.151111      1.000000
 -0.102902 -0.054674  0.145075      1.000000
 -0.068995 -0.074249  0.139038      1.000000
 -0.035087 -0.093823  0.133001      1.000000
 -0.000266 -0.075898  0.120052      1.000000
  0.033642 -0.095473  0.114015      1.000000
  0.067550 -0.115048  0.107978      1.000000
  0.101458 -0.134622  0.101942      1.000000
  0.135365 -0.154197  0.095905      1.000000
  0.169273 -0.173772  0.089868      1.000000
 -0.135897  0.002400  0.144198      1.000000
 -0.101989 -0.017174  0.138162      1.000000
 -0.068081 -0.036749  0.132125      1.000000
 -0.034173 -0.056324  0.126088      1.000000
  0.000648 -0.038399  0.113139      1.000000
  0.034555 -0.057974  0.107102      1.000000
  0.068463 -0.077548  0.101065      1.000000
  0.102371 -0.097123  0.095029      1.000000
  0.136279 -0.116698  0.088992      1.000000
  0.170187 -0.136272  0.082955      1.000000
 -0.134983  0.039900  0.137285      1.000000
 -0.101076  0.020325  0.131248      1.000000
 -0.067168  0.000750  0.125212      1.000000
 -0.033260 -0.018824  0.119175      1.000000
 -0.001041  0.000600 -0.070817      1.000000
  0.032867 -0.018975 -0.076854      1.000000
  0.066775 -0.038550 -0.082890      1.000000
  0.100683 -0.058124 -0.088927      1.000000
  0.134590 -0.077699 -0.094963      1.000000
  0.168498 -0.097274 -0.101000      1.000000
 -0.136672  0.078898 -0.046670      1.000000
 -0.102764  0.059324 -0.052707      1.000000
 -0.068856  0.039749 -0.058744      1.000000
 -0.034948  0.020174 -0.064780      1.000000
 -0.000127  0.038099 -0.077730      1.000000
  0.033780  0.018524 -0.083767      1.000000
  0.067688 -0.001050 -0.089803      1.000000
  0.101596 -0.020625 -0.095840      1.000000
  0.135504 -0.040200 -0.101877      1.000000
  0.169412 -0.059774 -0.107913      1.000000
 -0.135758  0.116398 -0.053584      1.000000
 -0.101851  0.096823 -0.059620      1.000000
 -0.067943  0.077248 -0.065657      1.000000
 -0.034035  0.057674 -0.071693      1.000000
  0.000786  0.075599 -0.084643      1.000000
  0.034694  0.056024 -0.090680      1.000000
  0.068602  0.036449 -0.096716      1.000000
  0.102509  0.016875 -0.102753      1.000000
  0.136417 -0.002700 -0.108790      1.000000
  0.170325 -0.022275 -0.114826      1.000000
 -0.134845  0.153897 -0.060497      1.000000
 -0.100937  0.134323 -0.066533      1.000000
 -0.067030  0.114748 -0.072570      1.000000
 -0.033122  0.095173 -0.078607      1.000000
  0.001699  0.113098 -0.091556      1.000000
  0.035607  0.093523 -0.097593      1.000000
  0.069515  0.073949 -0.103630      1.000000
  0.103423  0.054374 -0.109666      1.000000
  0.137330  0.034799 -0.115703      1.000000
  0.171238  0.015225 -0.121739      1.000000
 -0.133932  0.191397 -0.067410      1.000000
 -0.100024  0.171822 -0.073446      1.000000
 -0.066116  0.152247 -0.079483      1.000000
 -0.032208  0.132673 -0.085520      1.000000
  0.002613  0.150597 -0.098469      1.000000
  0.036520  0.131023 -0.104506      1.000000
  0.070428  0.111448 -0.110543      1.000000
  0.104336  0.091873 -0.116579      1.000000
  0.138244  0.072299 -0.122616      1.000000
  0.172152  0.052724 -0.128653      1.000000
 -0.133018  0.228896 -0.074323      1.000000
 -0.099111  0.209321 -0.080359      1.000000
 -0.065203  0.189747 -0.086396      1.000000
 -0.031295  0.170172 -0.092433      1.000000
  0.003526  0.188097 -0.105382      1.000000
  0.037434  0.168522 -0.111419      1.000000
  0.071342  0.148948 -0.117456      1.000000
  0.105249  0.129373 -0.123492      1.000000
  0.139157  0.109798 -0.129529      1.000000
  0.173065  0.090224 -0.135566      1.000000
 -0.132105  0.266396 -0.081236      1.000000
 -0.098197  0.246821 -0.087273      1.000000
 -0.064290  0.227246 -0.093309      1.000000
 -0.030382  0.207672 -0.099346      1.000000
 -0.005607 -0.186898 -0.036251      1.000000
  0.028301 -0.206472 -0.042288      1.000000
  0.062208 -0.226047 -0.048325      1.000000
  0.096116 -0.245622 -0.054361      1.000000
  0.130024 -0.265196 -0.060398      1.000000
  0.163932 -0.284771 -0.066435      1.000000
 -0.141238 -0.108599 -0.012105      1.000000
 -0.107331 -0.128174 -0.018141      1.000000
 -0.073423 -0.147748 -0.024178      1.000000
 -0.039515 -0.167323 -0.030215      1.000000
 -0.004694 -0.149398 -0.043164      1.000000
  0.029214 -0.168973 -0.049201      1.000000
  0.063122 -0.188548 -0.055238      1.000000
  0.097029 -0.208122 -0.061274      1.000000
  0.130937 -0.227697 -0.067311      1.000000
  0.164845 -0.247272 -0.073348      1.000000
 -0.140325 -0.071100 -0.019018      1.000000
 -0.106417 -0.090674 -0.025055      1.000000
 -0.072510 -0.110249 -0.031091      1.000000
 -0.038602 -0.129824 -0.037128      1.000000
 -0.003781 -0.111899 -0.050078      1.000000
  0.030127 -0.131473 -0.056114      1.000000
  0.064035 -0.151048 -0.062151      1.000000
  0.097943 -0.170623 -0.068187      1.000000
  0.131850 -0.190197 -0.074224      1.000000
  0.165758 -0.209772 -0.080261      1.000000
 -0.139412 -0.033600 -0.025931      1.000000
 -0.105504 -0.053175 -0.031968      1.000000
 -0.071596 -0.072749 -0.038004      1.000000
 -0.037688 -0.092324 -0.044041      1.000000
 -0.002867 -0.074399 -0.056991      1.000000
  0.031040 -0.093974 -0.063027      1.000000
  0.064948 -0.113549 -0.069064      1.000000
  0.098856 -0.133123 -0.075101      1.000000
  0.132764 -0.152698 -0.081137      1.000000
  0.166672 -0.172273 -0.087174      1.000000
 -0.138498  0.003899 -0.032844      1.000000
 -0.104591 -0.015675 -0.038881      1.000000
 -0.070683 -0.035250 -0.044917      1.000000
 -0.036775 -0.054825 -0.050954      1.000000
 -0.001954 -0.036900 -0.063904      1.000000
  0.031954 -0.056474 -0.069940      1.000000
  0.065862 -0.076049 -0.075977      1.000000
  0.099769 -0.095624 -0.082014      1.000000
  0.133677 -0.115198 -0.088050      1.000000
  0.167585 -0.134773 -0.094087      1.000000
 -0.137585  0.041399 -0.039757      1.000000
 -0.103677  0.021824 -0.045794      1.000000
 -0.069770  0.002250 -0.051831      1.000000
 -0.035862 -0.017325 -0.057867      1.000000
 -0.000520  0.000300 -0.035408      1.000000
  0.033387 -0.019275 -0.041445      1.000000
  0.067295 -0.038850 -0.047482      1.000000
  0.101203 -0.058424 -0.053518      1.000000
  0.135111 -0.077999 -0.059555      1.000000
  0.169019 -0.097574 -0.065592      1.000000
 -0.136151  0.078599 -0.011262      1.000000
 -0.102244  0.059024 -0.017299      1.000000
 -0.068336  0.039449 -0.023335      1.000000
 -0.034428  0.019874 -0.029372      1.000000
  0.000393  0.037799 -0.042322      1.000000
  0.034301  0.018225 -0.048358      1.000000
  0.068209 -0.001350 -0.054395      1.000000
  0.102116 -0.020925 -0.060431      1.000000
  0.136024 -0.040499 -0.066468      1.000000
  0.169932 -0.060074 -0.072505      1.000000
 -0.135238  0.116098 -0.018175      1.000000
 -0.101330  0.096523 -0.024212      1.000000
 -0.067423  0.076949 -0.030248      1.000000
 -0.033515  0.057374 -0.036285      1.000000
  0.001306  0.075299 -0.049235      1.000000
  0.035214  0.055724 -0.055271      1.000000
  0.069122  0.036149 -0.061308      1.000000
  0.103030  0.016575 -0.067345      1.000000
  0.136937 -0.003000 -0.073381      1.000000
  0.170845 -0.022575 -0.079418      1.000000
 -0.134325  0.153597 -0.025088      1.000000
 -0.100417  0.134023 -0.031125      1.000000
 -0.066509  0.114448 -0.037161      1.000000
 -0.032601  0.094873 -0.043198      1.000000
  0.002220  0.112798 -0.056148      1.000000
  0.036127  0.093224 -0.062184      1.000000
  0.070035  0.073649 -0.068221      1.000000
  0.103943  0.054074 -0.074258      1.000000
  0.137851  0.034500 -0.080294      1.000000
  0.171759  0.014925 -0.086331      1.000000
 -0.133411  0.191097 -0.032001      1.000000
 -0.099504  0.171522 -0.038038      1.000000
 -0.065596  0.151948 -0.044075      1.000000
 -0.031688  0.132373 -0.050111      1.000000
  0.003133  0.150298 -0.063061      1.000000
  0.037041  0.130723 -0.069098      1.000000
  0.070949  0.111148 -0.075134      1.000000
  0.104856  0.091574 -0.081171      1.000000
  0.138764  0.071999 -0.087207      1.000000
  0.172672  0.052424 -0.093244      1.000000
 -0.132498  0.228596 -0.038914      1.000000
 -0.098590  0.209022 -0.044951      1.000000
 -0.064683  0.189447 -0.050988      1.000000
 -0.030775  0.169872 -0.057024      1.000000
  0.004046  0.187797 -0.069974      1.000000
  0.037954  0.168222 -0.076011      1.000000
  0.071862  0.148648 -0.082047      1.000000
  0.105770  0.129073 -0.088084      1.000000
  0.139677  0.109498 -0.094121      1.000000
  0.173585  0.089924 -0.100157      1.000000
 -0.131585  0.266096 -0.045827      1.000000
 -0.097677  0.246521 -0.051864      1.000000
 -0.063769  0.226946 -0.057901      1.000000
 -0.029861  0.207372 -0.063937      1.000000
 -0.005087 -0.187197 -0.000843      1.000000
  0.028821 -0.206772 -0.006880      1.000000
  0.062729 -0.226347 -0.012916      1.000000
  0.096636 -0.245921 -0.018953      1.000000
  0.130544 -0.265496 -0.024989      1.000000
  0.164452 -0.285071 -0.031026      1.000000
 -0.140718 -0.108899  0.023304      1.000000
 -0.106810 -0.128473  0.017267      1.000000
 -0.072903 -0.148048  0.011230      1.000000
 -0.038995 -0.167623  0.005194      1.000000
 -0.004174 -0.149698 -0.007756      1.000000
  0.029734 -0.169273 -0.013793      1.000000
  0.063642 -0.188847 -0.019829      1.000000
  0.097550 -0.208422 -0.025866      1.000000
  0.131457 -0.227997 -0.031903      1.000000
  0.165365 -0.247571 -0.037939      1.000000
 -0.139805 -0.071399  0.016391      1.000000
 -0.105897 -0.090974  0.010354      1.000000
 -0.071989 -0.110549  0.004317      1.000000
 -0.038081 -0.130123 -0.001719      1.000000
 -0.003260 -0.112199 -0.014669      1.000000
  0.030647 -0.131773 -0.020706      1.000000
  0.064555 -0.151348 -0.026742      1.000000
  0.098463 -0.170923 -0.032779      1.000000
  0.132371 -0.190497 -0.038816      1.000000
  0.166279 -0.210072 -0.044852      1.000000
 -0.138891 -0.033900  0.009477      1.000000
 -0.104984 -0.053475  0.003441      1.000000
 -0.071076 -0.073049 -0.002596      1.000000
 -0.037168 -0.092624 -0.008633      1.000000
 -0.002347 -0.074699 -0.021582      1.000000
  0.031561 -0.094274 -0.027619      1.000000
  0.065469 -0.113848 -0.033656      1.000000
  0.099376 -0.133423 -0.039692      1.000000
  0.133284 -0.152998 -0.045729      1.000000
  0.167192 -0.172572 -0.051765      1.000000
 -0.137978  0.003600  0.002564      1.000000
 -0.104070 -0.015975 -0.003472      1.000000
 -0.070163 -0.035550 -0.009509      1.000000
 -0.036255 -0.055124 -0.015546      1.000000
 -0.001434 -0.037200 -0.028495      1.000000
  0.032474 -0.056774 -0.034532      1.000000
  0.066382 -0.076349 -0.040569      1.000000
  0.100290 -0.095924 -0.046605      1.000000
  0.134197 -0.115498 -0.052642      1.000000
  0.168105 -0.135073 -0.058679      1.000000
 -0.137065  0.041099 -0.004349      1.000000
 -0.103157  0.021524 -0.010385      1.000000
 -0.069249  0.001950 -0.016422      1.000000
 -0.035341 -0.017625 -0.022459      1.000000
 
 TETIRR: Found   3960 inequivalent tetrahedra from     3960


--------------------------------------------------------------------------------------------------------




 Dimension of arrays:
   k-points           NKPTS =    660   k-points in BZ     NKDIM =    660   number of bands    NBANDS=     20
   number of dos      NEDOS =    301   number of ions     NIONS =      4
   non local maximal  LDIM  =      6   non local SUM 2l+1 LMDIM =     18
   total plane-waves  NPLWV =  23040
   max r-space proj   IRMAX =   7159   max aug-charges    IRDMAX= 180684
   dimension x,y,z NGX =    24 NGY =   24 NGZ =   40
   dimension x,y,z NGXF=    48 NGYF=   48 NGZF=   80
   support grid    NGXF=    96 NGYF=   96 NGZF=  160
   ions per type =               1   1   2
   NGX,Y,Z   is equivalent  to a cutoff of  13.77, 14.45, 13.44 a.u.
   NGXF,Y,Z  is equivalent  to a cutoff of  27.54, 28.91, 26.89 a.u.

 SYSTEM =  final                                   
 POSCAR =  SCEL1_1_1_1_0_0_0/0                     

 Startparameter for this run:
   NWRITE =      2    write-flag & timer
   PREC   = accura    normal or accurate (medium, high low for compatibility)
   ISTART =      0    job   : 0-new  1-cont  2-samecut
   ICHARG =      2    charge: 1-file 2-atom 10-const
   ISPIN  =      2    spin polarized calculation?
   LNONCOLLINEAR =      F non collinear calculations
   LSORBIT =      F    spin-orbit coupling
   INIWAV =      1    electr: 0-lowe 1-rand  2-diag
   LASPH  =      F    aspherical Exc in radial PAW
   METAGGA=      F    non-selfconsistent MetaGGA calc.

 Electronic Relaxation 1
[...]
     18      18.7810      0.00000
     19      20.5185      0.00000
     20      22.0244      0.00000

 k-point   645 :       0.4000   -0.1818   -0.1667
  band No.  band energies     occupation 
      1     -12.6778      1.00000
      2     -12.4402      1.00000
      3      -1.6096      1.00000
      4      -0.6501      1.00000
      5      -0.1464      1.00000
      6       0.7743      1.00000
      7       1.3740      1.00000
      8       1.6629      1.00000
      9       2.4718      1.00000
     10       2.6171      1.00000
     11       2.8670      1.00000
     12       6.5807      0.00000
     13       7.1845      0.00000
     14      15.2240      0.00000
     15      16.6810      0.00000
     16      17.1109      0.00000
     17      17.7126      0.00000
     18      18.8834      0.00000
     19      20.4780      0.00000
     20      21.9439      0.00000

 k-point   646 :       0.5000   -0.1818   -0.1667
  band No.  band energies     occupation 
      1     -12.8586      1.00000
      2     -12.3684      1.00000
      3      -1.4828      1.00000
      4      -0.6013      1.00000
      5      -0.1999      1.00000
      6       0.6492      1.00000
      7       1.4315      1.00000
      8       1.8397      1.00000
      9       2.3886      1.00000
     10       2.6523      1.00000
     11       3.0338      1.00000
     12       6.5372      0.00000
     13       7.2664      0.00000
     14      14.6960      0.00000
     15      16.9081      0.00000
     16      17.4493      0.00000
     17      17.8646      0.00000
     18      18.7206      0.00000
     19      20.6216      0.00000
     20      21.5388      0.00000

 k-point   647 :      -0.4000   -0.1818   -0.1667
  band No.  band energies     occupation 
      1     -13.2019      1.00000
      2     -12.3503      1.00000
      3      -1.2453      1.00000
      4      -0.5718      1.00000
      5      -0.1774      1.00000
      6       0.6015      1.00000
      7       1.5168      1.00000
      8       2.0424      1.00000
      9       2.4760      1.00000
     10       2.9908      1.00000
     11       3.2573      1.00000
     12       6.5279      0.00000
     13       7.2190      0.00000
     14      13.8890      0.00000
     15      16.7457      0.00000
     16      17.6558      0.00000
     17      18.3847      0.00000
     18      18.7266      0.00000
     19      20.9952      0.00000
     20      21.7149      0.00000

 k-point   648 :      -0.3000   -0.1818   -0.1667
  band No.  band energies     occupation 
      1     -13.5494      1.00000
      2     -12.4022      1.00000
      3      -1.2182      1.00000
      4      -0.6449      1.00000
      5       0.2275      1.00000
      6       0.6438      1.00000
      7       1.6347      1.00000
      8       2.1777      1.00000
      9       2.7546      1.00000
     10       3.3924      1.00000
     11       3.5392      1.00000
     12       6.5432      0.00000
     13       7.0624      0.00000
     14      13.0827      0.00000
     15      15.7106      0.00000
     16      17.8816      0.00000
     17      19.1458      0.00000
     18      19.4290      0.00000
     19      21.5021      0.00000
     20      22.3749      0.00000

 k-point   649 :      -0.2000   -0.1818   -0.1667
  band No.  band energies     occupation 
      1     -13.8046      1.00000
      2     -12.4685      1.00000
      3      -1.4355      1.00000
      4      -0.4044      1.00000
      5       0.3419      1.00000
      6       0.8881      1.00000
      7       1.6422      1.00000
      8       2.5297      1.00000
      9       2.9410      1.00000
     10       3.4570      1.00000
     11       3.9513      1.00000
     12       6.4556      0.00000
     13       7.0759      0.00000
     14      12.4621      0.00000
     15      14.7070      0.00000
     16      18.0792      0.00000
     17      19.8333      0.00000
     18      20.5107      0.00000
     19      21.4247      0.00000
     20      23.4685      0.00000

 k-point   650 :      -0.1000   -0.1818   -0.1667
  band No.  band energies     occupation 
      1     -13.9054      1.00000
      2     -12.5037      1.00000
      3      -1.5388      1.00000
      4      -0.2066      1.00000
      5       0.2305      1.00000
      6       1.1110      1.00000
      7       1.5851      1.00000
      8       2.7801      1.00000
      9       3.0581      1.00000
     10       3.4646      1.00000
     11       4.0003      1.00000
     12       6.5116      0.00000
     13       7.0637      0.00000
     14      12.1686      0.00000
     15      14.2985      0.00000
     16      18.1592      0.00000
     17      20.3625      0.00000
     18      20.8215      0.00000
     19      21.2995      0.00000
     20      23.8741      0.00000

 k-point   651 :       0.0000   -0.0909   -0.1667
  band No.  band energies     occupation 
      1     -14.0892      1.00000
      2     -12.5706      1.00000
      3      -1.7597      1.00000
      4      -0.0041      1.00000
      5       0.1439      1.00000
      6       1.3195      1.00000
      7       2.1078      1.00000
      8       2.8490      1.00000
      9       3.2125      1.00000
     10       3.5239      1.00000
     11       3.8379      1.00000
     12       6.8512      0.00000
     13       7.1157      0.00000
     14      11.6248      0.00000
     15      13.6659      0.00000
     16      18.2626      0.00000
     17      20.4702      0.00000
     18      21.3346      0.00000
     19      22.8621      0.00000
     20      23.9045      0.00000

 k-point   652 :       0.1000   -0.0909   -0.1667
  band No.  band energies     occupation 
      1     -13.9017      1.00000
      2     -12.5297      1.00000
      3      -1.5895      1.00000
      4      -0.2709      1.00000
      5       0.2985      1.00000
      6       1.0960      1.00000
      7       1.9730      1.00000
      8       2.3507      1.00000
      9       3.1938      1.00000
     10       3.4680      1.00000
     11       3.6927      1.00000
     12       6.7744      0.00000
     13       7.0099      0.00000
     14      12.2583      0.00000
     15      14.5603      0.00000
     16      17.8707      0.00000
     17      19.8417      0.00000
     18      20.9843      0.00000
     19      22.3459      0.00000
     20      22.9080      0.00000

 k-point   653 :       0.2000   -0.0909   -0.1667
  band No.  band energies     occupation 
      1     -13.5647      1.00000
      2     -12.4642      1.00000
      3      -1.4779      1.00000
      4      -0.4118      1.00000
      5       0.3613      1.00000
      6       0.7178      1.00000
      7       1.5865      1.00000
      8       2.0485      1.00000
      9       3.0807      1.00000
     10       3.1687      1.00000
     11       3.4649      1.00000
     12       6.8088      0.00000
     13       6.9063      0.00000
     14      13.3453      0.00000
     15      15.6890      0.00000
     16      17.3754      0.00000
     17      18.9258      0.00000
     18      20.0075      0.00000
     19      21.2849      0.00000
     20      22.4507      0.00000

 k-point   654 :       0.3000   -0.0909   -0.1667
  band No.  band energies     occupation 
      1     -13.1610      1.00000
      2     -12.4296      1.00000
      3      -1.6843      1.00000
      4      -0.2149      1.00000
      5      -0.0198      1.00000
      6       0.5499      1.00000
      7       1.4424      1.00000
      8       2.0397      1.00000
      9       2.6761      1.00000
     10       2.9004      1.00000
     11       3.2195      1.00000
     12       6.7962      0.00000
     13       6.9827      0.00000
     14      14.4515      0.00000
     15      16.1488      0.00000
     16      17.2564      0.00000
     17      18.0908      0.00000
     18      19.1687      0.00000
     19      20.7269      0.00000
     20      22.1134      0.00000

 k-point   655 :       0.4000   -0.0909   -0.1667
  band No.  band energies     occupation 
      1     -12.8272      1.00000
      2     -12.4657      1.00000
      3      -1.9249      1.00000
      4      -0.3559      1.00000
      5      -0.0792      1.00000
      6       0.5298      1.00000
      7       1.6110      1.00000
      8       2.0822      1.00000
      9       2.3913      1.00000
     10       2.7153      1.00000
     11       2.9247      1.00000
     12       6.7846      0.00000
     13       7.1086      0.00000
     14      14.8312      0.00000
     15      16.3453      0.00000
     16      17.2789      0.00000
     17      17.5597      0.00000
     18      19.1124      0.00000
     19      20.4738      0.00000
     20      21.8844      0.00000

 k-point   656 :       0.5000   -0.0909   -0.1667
  band No.  band energies     occupation 
      1     -12.8489      1.00000
      2     -12.4249      1.00000
      3      -1.9030      1.00000
      4      -0.4528      1.00000
      5      -0.1054      1.00000
      6       0.5282      1.00000
      7       1.7157      1.00000
      8       2.0730      1.00000
      9       2.3285      1.00000
     10       2.7643      1.00000
     11       2.8704      1.00000
     12       6.7587      0.00000
     13       7.2273      0.00000
     14      14.4079      0.00000
     15      16.7893      0.00000
     16      17.4070      0.00000
     17      17.4548      0.00000
     18      19.1233      0.00000
     19      20.4935      0.00000
     20      21.8154      0.00000

 k-point   657 :      -0.4000   -0.0909   -0.1667
  band No.  band energies     occupation 
      1     -13.1776      1.00000
      2     -12.3649      1.00000
      3      -1.6066      1.00000
      4      -0.5793      1.00000
      5       0.0173      1.00000
      6       0.5765      1.00000
      7       1.5178      1.00000
      8       2.1409      1.00000
      9       2.5399      1.00000
     10       2.9867      1.00000
     11       3.1420      1.00000
     12       6.7451      0.00000
     13       7.2149      0.00000
     14      13.7702      0.00000
     15      16.7471      0.00000
     16      17.5840      0.00000
     17      18.0150      0.00000
     18      18.9602      0.00000
     19      20.9757      0.00000
     20      21.9168      0.00000

 k-point   658 :      -0.3000   -0.0909   -0.1667
  band No.  band energies     occupation 
      1     -13.5692      1.00000
      2     -12.4037      1.00000
      3      -1.4013      1.00000
      4      -0.6838      1.00000
      5       0.3379      1.00000
      6       0.7248      1.00000
      7       1.5811      1.00000
      8       2.1457      1.00000
      9       2.8339      1.00000
     10       3.3273      1.00000
     11       3.5191      1.00000
     12       6.7818      0.00000
     13       7.0244      0.00000
     14      13.0031      0.00000
     15      15.8518      0.00000
     16      17.9784      0.00000
     17      18.7812      0.00000
     18      19.3731      0.00000
     19      21.8494      0.00000
     20      22.2612      0.00000

 k-point   659 :      -0.2000   -0.0909   -0.1667
  band No.  band energies     occupation 
      1     -13.9003      1.00000
      2     -12.4883      1.00000
      3      -1.5970      1.00000
      4      -0.3840      1.00000
      5       0.3195      1.00000
      6       1.0828      1.00000
      7       2.0622      1.00000
      8       2.2251      1.00000
      9       3.0082      1.00000
     10       3.4604      1.00000
     11       3.9613      1.00000
     12       6.7454      0.00000
     13       7.0077      0.00000
     14      12.2052      0.00000
     15      14.5784      0.00000
     16      18.2617      0.00000
     17      19.6029      0.00000
     18      20.6067      0.00000
     19      22.1782      0.00000
     20      23.1564      0.00000

 k-point   660 :      -0.1000   -0.0909   -0.1667
  band No.  band energies     occupation 
      1     -14.0880      1.00000
      2     -12.5561      1.00000
      3      -1.7694      1.00000
      4      -0.0632      1.00000
      5       0.1827      1.00000
      6       1.3149      1.00000
      7       2.1719      1.00000
      8       2.7128      1.00000
      9       3.1749      1.00000
     10       3.5030      1.00000
     11       3.9760      1.00000
     12       6.8048      0.00000
     13       7.1394      0.00000
     14      11.6435      0.00000
     15      13.6559      0.00000
     16      18.3864      0.00000
     17      20.3337      0.00000
     18      21.3536      0.00000
     19      22.8010      0.00000
     20      23.8736      0.00000


--------------------------------------------------------------------------------------------------------


 soft charge-density along one line, spin component           1
         0         1         2         3         4         5         6         7         8         9
 total charge-density along one line
 
 soft charge-density along one line, spin component           2
         0         1         2         3         4         5         6         7         8         9
 total charge-density along one line
 
 pseudopotential strength for first ion, spin component:           1
  1.194   5.279  -0.000  -0.000  -0.000
  5.279  22.363  -0.000  -0.000  -0.000
 -0.000  -0.000  -0.229   0.000  -0.000
 -0.000  -0.000   0.000  -0.229  -0.000
 -0.000  -0.000  -0.000  -0.000  -0.229
 pseudopotential strength for first ion, spin component:           2
  1.194   5.278  -0.000  -0.000  -0.000
  5.278  22.359  -0.000  -0.000  -0.000
 -0.000  -0.000  -0.231   0.000  -0.000
 -0.000  -0.000   0.000  -0.231  -0.000
 -0.000  -0.000  -0.000  -0.000  -0.230
 total augmentation occupancy for first ion, spin component:           1
  0.948  -0.028  -0.000   0.000   0.000
 -0.028   0.001  -0.000  -0.000  -0.000
 -0.000  -0.000   0.082   0.000  -0.002
  0.000  -0.000   0.000   0.091  -0.000
  0.000  -0.000  -0.002  -0.000   0.085
 total augmentation occupancy for first ion, spin component:           2
  0.021  -0.000  -0.000  -0.000   0.000
 -0.000   0.000  -0.000   0.000   0.000
 -0.000  -0.000   0.000   0.001  -0.002
 -0.000   0.000   0.001   0.002  -0.002
  0.000   0.000  -0.002  -0.002   0.002


------------------------ aborting loop because EDIFF is reached ----------------------------------------


    CHARGE:  cpu time    1.0348: real time    1.0351
    FORLOC:  cpu time    0.0030: real time    0.0025
    FORNL :  cpu time    8.6767: real time    8.6785
    STRESS:  cpu time   26.5670: real time   26.5742
    FORCOR:  cpu time    1.4488: real time    1.4490
    FORHAR:  cpu time    0.0060: real time    0.0060
    MIXING:  cpu time    0.0020: real time    0.0018
    OFIELD:  cpu time    0.0000: real time    0.0000

  FORCE on cell =-STRESS in cart. coord.  units (eV):
  Direction    XX          YY          ZZ          XY          YZ          ZX
  --------------------------------------------------------------------------------------
  Alpha Z    69.44329    69.44329    69.44329
  Ewald    -295.82225  -228.43776  -862.43252    58.44058   -27.22778    47.28291
  Hartree   363.78278   395.46915  -101.62353    27.47821    -9.32534    16.19302
  E(xc)    -117.89343  -117.88708  -117.86359     0.00544     0.00050    -0.00087
  Local    -503.68849  -595.95215   527.85560   -80.01619    32.18669   -55.89783
  n-local   -53.09432   -51.72425   -53.15727     1.18699    -0.97184     1.68621
  augment   190.89103   188.02362   190.44151    -2.48643     1.84997    -3.21433
  Kinetic   346.31508   341.02303   347.34838    -4.58590     3.49040    -6.05669
  Fock        0.00000     0.00000     0.00000     0.00000     0.00000     0.00000
  -------------------------------------------------------------------------------------
  Total      -0.06631    -0.04215     0.01187     0.02271     0.00260    -0.00760
  in kB      -3.20950    -2.04005     0.57440     1.09904     0.12591    -0.36772
  external pressure =       -1.56 kB  Pullay stress =        0.00 kB


 VOLUME and BASIS-vectors are now :
 -----------------------------------------------------------------------------
  energy-cutoff  :      600.00
  volume of cell :       33.10
      direct lattice vectors                 reciprocal lattice vectors
     2.896159569 -0.078506457 -0.043223125     0.339077794 -0.195746713 -0.060366323
     1.380099369  2.390657197 -0.000037076     0.010046607  0.412494048 -0.076044209
     1.316912393  0.833400032  4.694677718     0.003121913 -0.001798950  0.212450783

  length of vectors
     2.897545816  2.760419552  4.946596076     0.396149743  0.419565246  0.212481336


 FORCES acting on ions
    electron-ion (+dipol)            ewald-force                    non-local-force                 convergence-correction
 -----------------------------------------------------------------------------------------------
   -.351E-07 0.215E-07 -.627E-06   0.261E-07 -.134E-07 0.503E-06   0.271E-08 -.368E-08 -.435E-07   0.164E-08 -.811E-09 0.818E-07
   0.273E-05 -.167E-05 0.450E-05   -.250E-05 0.136E-05 -.302E-05   0.121E-06 -.197E-06 -.281E-07   -.405E-06 0.540E-06 -.184E-05
   -.263E+02 0.151E+02 -.305E+03   0.305E+02 -.176E+02 0.318E+03   -.424E+01 0.244E+01 -.130E+02   0.217E-03 -.125E-03 0.105E-02
   0.263E+02 -.151E+02 0.305E+03   -.305E+02 0.176E+02 -.318E+03   0.424E+01 -.244E+01 0.130E+02   -.217E-03 0.125E-03 -.105E-02
 -----------------------------------------------------------------------------------------------
   0.487E-06 -.384E-06 0.204E-05   -.355E-14 0.000E+00 -.568E-13   -.240E-06 0.290E-08 -.231E-06   -.386E-06 0.518E-06 -.234E-05
 
 
 POSITION                                       TOTAL-FORCE (eV/Angst)
 -----------------------------------------------------------------------------------
      4.21307      0.75489      4.65145         0.000000     -0.000000      0.000000
      2.79659      1.57278      2.32571        -0.000000      0.000000     -0.000000
      4.12819      2.39759      3.37189        -0.009525      0.006504     -0.009873
      1.46498      0.74796      1.27952         0.009525     -0.006504      0.009873
 -----------------------------------------------------------------------------------
    total drift:                               -0.000000      0.000000     -0.000001


--------------------------------------------------------------------------------------------------------



  FREE ENERGIE OF THE ION-ELECTRON SYSTEM (eV)
  ---------------------------------------------------
  free  energy   TOTEN  =       -14.44295435 eV

  energy  without entropy=      -14.44295435  energy(sigma->0) =      -14.44295435
 


--------------------------------------------------------------------------------------------------------


    POTLOK:  cpu time    1.5008: real time    1.5000


--------------------------------------------------------------------------------------------------------


 writing wavefunctions
     LOOP+:  cpu time  557.7232: real time  559.0784
    4ORBIT:  cpu time    0.0000: real time    0.0000
 BZINTS: Fermi energy:  4.856709; 23.000000 electrons
         Band energy: -30.593334;  BLOECHL correction:  0.000000

 total amount of memory used by VASP MPI-rank0   167908. kBytes
=======================================================================

   base      :      30000. kBytes
   nonlr-proj:       2393. kBytes
   fftplans  :       6896. kBytes
   grid      :       5999. kBytes
   one-center:        124. kBytes
   wavefun   :     122496. kBytes
 
  
  
 General timing and accounting informations for this job:
 ========================================================
  
                  Total CPU time used (sec):      564.142
                            User time (sec):      560.261
                          System time (sec):        3.881
                         Elapsed time (sec):      565.664
  
                   Maximum memory used (kb):      363868.
                   Average memory used (kb):           0.
  
                          Minor page faults:       216797
                          Major page faults:            0
                 Voluntary context switches:         1038
