 vasp.5.3.5 31Mar14 (build Sep 09 2015 15:22:16) complex                        
  
 executed on Braid_opmi165-intel1 date 2017.11.01  16:47:25
 running on    8 total cores
 distrk:  each k-point on    8 cores,    1 groups
 distr:  one band on NCORES_PER_BAND=   1 cores,    8 groups


--------------------------------------------------------------------------------------------------------


 INCAR:
 POTCAR:    PAW_PBE Li 17Jan2003                  
 POTCAR:    PAW_PBE Ni 02Aug2007                  
 POTCAR:    PAW_PBE O 08Apr2002                   

 ----------------------------------------------------------------------------- 
|                                                                             |
|           W    W    AA    RRRRR   N    N  II  N    N   GGGG   !!!           |
|           W    W   A  A   R    R  NN   N  II  NN   N  G    G  !!!           |
|           W    W  A    A  R    R  N N  N  II  N N  N  G       !!!           |
|           W WW W  AAAAAA  RRRRR   N  N N  II  N  N N  G  GGG   !            |
|           WW  WW  A    A  R   R   N   NN  II  N   NN  G    G                |
|           W    W  A    A  R    R  N    N  II  N    N   GGGG   !!!           |
|                                                                             |
|      For optimal performance we recommend to set                            |
|        NCORE= 4 - approx SQRT( number of cores)                             |
|      NCORE specifies how many cores store one orbital (NPAR=cpu/NCORE).     |
|      This setting can  greatly improve the performance of VASP for DFT.     |
|      The default, NPAR=number of cores might be grossly inefficient         |
|      on modern multi-core architectures or massively parallel machines.     |
|      Do your own testing !!!!                                               |
|      Unfortunately you need to use the default for GW and RPA calculations. |
|      (for HF NCORE is supported but not extensively tested yet)             |
|                                                                             |
 ----------------------------------------------------------------------------- 


 ----------------------------------------------------------------------------- 
|                                                                             |
|  ADVICE TO THIS USER RUNNING 'VASP/VAMP'   (HEAR YOUR MASTER'S VOICE ...):  |
|                                                                             |
|      You have switched on vdW-DFT.                                          |
|      This routine was written and supplied by Jiri Klimes.                  |
|      We recommed that you carefully read and cite the following             |
|      publication                                                            |
|      J. Klimes, D.R. Bowler, A. Michelides                                  |
|        J. Phys.: Cond Matt. 22 022201 (2010)                                |
|      J. Klimes, D.R. Bowler, A. Michelides                                  |
|        Phys. Rev. B. 83, 195131 (2011)                                      |
|      and references therein.                                                |
|                                                                             |
 ----------------------------------------------------------------------------- 

 POTCAR:    PAW_PBE Li 17Jan2003                  
   VRHFIN =Li: s1p0                                                             
   LEXCH  = PE                                                                  
   EATOM  =     5.3001 eV,    0.3895 Ry                                         
                                                                                
   TITEL  = PAW_PBE Li 17Jan2003                                                
   LULTRA =        F    use ultrasoft PP ?                                      
   IUNSCR =        1    unscreen: 0-lin 1-nonlin 2-no                           
   RPACOR =    1.500    partial core radius                                     
   POMASS =    7.010; ZVAL   =    1.000    mass and valenz                      
   RCORE  =    2.050    outmost cutoff radius                                   
   RWIGS  =    2.600; RWIGS  =    1.376    wigner-seitz radius (au A)           
   ENMAX  =  140.000; ENMIN  =  100.000 eV                                      
   ICORE  =        2    local potential                                         
   LCOR   =        T    correct aug charges                                     
   LPAW   =        T    paw PP                                                  
   EAUG   =  331.638                                                            
   DEXC   =    0.000                                                            
   RMAX   =    2.098    core radius for proj-oper                               
   RAUG   =    1.300    factor for augmentation sphere                          
   RDEP   =    2.094    radius for radial grids                                 
   RDEPT  =    1.810    core radius for aug-charge                              
                                                                                
   Atomic configuration                                                         
    4 entries                                                                   
     n  l   j            E        occ.                                          
     1  0  0.50       -51.8549   2.0000                                         
     2  0  0.50        -2.8742   1.0000                                         
     2  1  0.50        -1.3606   0.0000                                         
     3  2  1.50        -1.3606   0.0000                                         
   Description                                                                  
     l       E           TYP  RCUT    TYP  RCUT                                 
     0     -2.8742052     23  2.050                                             
     0     27.2116520     23  2.050                                             
     1     -1.3605826     23  2.050                                             
     2     -1.3605826     23  2.050                                             
  local pseudopotential read in
  partial core-charges read in
  partial kinetic energy density read in
  atomic valenz-charges read in
  non local Contribution for L=           0  read in
    real space projection operators read in
  non local Contribution for L=           0  read in
    real space projection operators read in
  non local Contribution for L=           1  read in
    real space projection operators read in
    PAW grid and wavefunctions read in
 
   number of l-projection  operators is LMAX  =           3
   number of lm-projection operators is LMMAX =           5
 
 POTCAR:    PAW_PBE Ni 02Aug2007                  
   VRHFIN =Ni:                                                                  
   LEXCH  = PE                                                                  
   EATOM  =  1077.6739 eV,   79.2068 Ry                                         
                                                                                
   TITEL  = PAW_PBE Ni 02Aug2007                                                
   LULTRA =        F    use ultrasoft PP ?                                      
   IUNSCR =        1    unscreen: 0-lin 1-nonlin 2-no                           
   RPACOR =    2.000    partial core radius                                     
   POMASS =   58.690; ZVAL   =   10.000    mass and valenz                      
   RCORE  =    2.300    outmost cutoff radius                                   
   RWIGS  =    2.430; RWIGS  =    1.286    wigner-seitz radius (au A)           
   ENMAX  =  269.532; ENMIN  =  202.149 eV                                      
   RCLOC  =    1.201    cutoff for local pot                                    
   LCOR   =        T    correct aug charges                                     
   LPAW   =        T    paw PP                                                  
   EAUG   =  544.565                                                            
   DEXC   =    0.000                                                            
   RMAX   =    2.357    core radius for proj-oper                               
   RAUG   =    1.300    factor for augmentation sphere                          
   RDEP   =    2.390    radius for radial grids                                 
   RDEPT  =    1.838    core radius for aug-charge                              
                                                                                
   Atomic configuration                                                         
    9 entries                                                                   
     n  l   j            E        occ.                                          
     1  0  0.50     -8206.4253   2.0000                                         
     2  0  0.50      -976.1748   2.0000                                         
     2  1  1.50      -839.0571   6.0000                                         
     3  0  0.50      -105.9991   2.0000                                         
     3  1  1.50       -66.4603   6.0000                                         
     3  2  2.50        -4.6458   9.0000                                         
     4  0  0.50        -4.4926   1.0000                                         
     4  1  1.50        -4.0817   0.0000                                         
     4  3  2.50        -1.3606   0.0000                                         
   Description                                                                  
     l       E           TYP  RCUT    TYP  RCUT                                 
     2     -4.6457903     23  2.300                                             
     2     -6.0063729     23  2.300                                             
     0     -4.4925590     23  2.300                                             
     0      5.0102601     23  2.300                                             
     1     -2.7211652     23  2.300                                             
     1     16.5183231     23  2.300                                             
  local pseudopotential read in
  partial core-charges read in
  partial kinetic energy density read in
  atomic valenz-charges read in
  non local Contribution for L=           2  read in
    real space projection operators read in
  non local Contribution for L=           2  read in
    real space projection operators read in
  non local Contribution for L=           0  read in
    real space projection operators read in
  non local Contribution for L=           0  read in
    real space projection operators read in
  non local Contribution for L=           1  read in
    real space projection operators read in
  non local Contribution for L=           1  read in
    real space projection operators read in
    PAW grid and wavefunctions read in
 
   number of l-projection  operators is LMAX  =           6
   number of lm-projection operators is LMMAX =          18
 
 POTCAR:    PAW_PBE O 08Apr2002                   
   VRHFIN =O: s2p4                                                              
   LEXCH  = PE                                                                  
   EATOM  =   432.3788 eV,   31.7789 Ry                                         
                                                                                
   TITEL  = PAW_PBE O 08Apr2002                                                 
   LULTRA =        F    use ultrasoft PP ?                                      
   IUNSCR =        1    unscreen: 0-lin 1-nonlin 2-no                           
   RPACOR =    1.200    partial core radius                                     
   POMASS =   16.000; ZVAL   =    6.000    mass and valenz                      
   RCORE  =    1.520    outmost cutoff radius                                   
   RWIGS  =    1.550; RWIGS  =    0.820    wigner-seitz radius (au A)           
   ENMAX  =  400.000; ENMIN  =  300.000 eV                                      
   ICORE  =        2    local potential                                         
   LCOR   =        T    correct aug charges                                     
   LPAW   =        T    paw PP                                                  
   EAUG   =  605.392                                                            
   DEXC   =    0.000                                                            
   RMAX   =    1.553    core radius for proj-oper                               
   RAUG   =    1.300    factor for augmentation sphere                          
   RDEP   =    1.550    radius for radial grids                                 
   RDEPT  =    1.329    core radius for aug-charge                              
                                                                                
   Atomic configuration                                                         
    4 entries                                                                   
     n  l   j            E        occ.                                          
     1  0  0.50      -514.6923   2.0000                                         
     2  0  0.50       -23.9615   2.0000                                         
     2  1  0.50        -9.0305   4.0000                                         
     3  2  1.50        -9.5241   0.0000                                         
   Description                                                                  
     l       E           TYP  RCUT    TYP  RCUT                                 
     0    -23.9615318     23  1.200                                             
     0     -9.5240782     23  1.200                                             
     1     -9.0304911     23  1.520                                             
     1      8.1634956     23  1.520                                             
     2     -9.5240782      7  1.500                                             
  local pseudopotential read in
  partial core-charges read in
  partial kinetic energy density read in
  kinetic energy density of atom read in
  atomic valenz-charges read in
  non local Contribution for L=           0  read in
    real space projection operators read in
  non local Contribution for L=           0  read in
    real space projection operators read in
  non local Contribution for L=           1  read in
    real space projection operators read in
  non local Contribution for L=           1  read in
    real space projection operators read in
    PAW grid and wavefunctions read in
 
   number of l-projection  operators is LMAX  =           4
   number of lm-projection operators is LMMAX =           8
 

 ----------------------------------------------------------------------------- 
|                                                                             |
|  ADVICE TO THIS USER RUNNING 'VASP/VAMP'   (HEAR YOUR MASTER'S VOICE ...):  |
|                                                                             |
|      You have a (more or less) 'small supercell' and for smaller cells      |
|      it is recommended  to use the reciprocal-space projection scheme!      |
|      The real space optimization is not  efficient for small cells and it   |
|      is also less accurate ...                                              |
|      Therefore set LREAL=.FALSE. in the  INCAR file                         |
|                                                                             |
 ----------------------------------------------------------------------------- 

 Optimization of the real space projectors (new method)

 maximal supplied QI-value         = 18.33
 optimisation between [QCUT,QGAM] = [ 12.46, 24.93] = [ 43.51,174.03] Ry 
 Optimized for a Real-space Cutoff    1.16 Angstroem

   l    n(q)    QCUT    max X(q) W(low)/X(q) W(high)/X(q)  e(spline) 
   0      9    12.465    33.825    0.19E-03    0.91E-04    0.59E-07
   0      9    12.465     8.944    0.14E-03    0.70E-04    0.43E-07
   1      8    12.465     4.214    0.55E-04    0.11E-03    0.64E-07
 Optimization of the real space projectors (new method)

 maximal supplied QI-value         = 16.25
 optimisation between [QCUT,QGAM] = [ 12.51, 25.03] = [ 43.85,175.40] Ry 
 Optimized for a Real-space Cutoff    1.35 Angstroem

   l    n(q)    QCUT    max X(q) W(low)/X(q) W(high)/X(q)  e(spline) 
   2      9    12.514    60.317    0.12E-03    0.13E-03    0.35E-06
   2      9    12.514    55.921    0.12E-03    0.13E-03    0.36E-06
   0     10    12.514    51.690    0.20E-03    0.11E-03    0.14E-06
   0     10    12.514    30.015    0.18E-03    0.96E-04    0.13E-06
   1     10    12.514    18.849    0.12E-03    0.67E-04    0.21E-06
   1     10    12.514    14.624    0.11E-03    0.53E-04    0.17E-06
 Optimization of the real space projectors (new method)

 maximal supplied QI-value         = 24.76
 optimisation between [QCUT,QGAM] = [ 12.38, 25.00] = [ 42.90,175.06] Ry 
 Optimized for a Real-space Cutoff    1.16 Angstroem

   l    n(q)    QCUT    max X(q) W(low)/X(q) W(high)/X(q)  e(spline) 
   0      9    12.378    20.381    0.16E-03    0.67E-05    0.31E-06
   0      9    12.378    15.268    0.17E-03    0.81E-05    0.33E-06
   1      8    12.378     5.964    0.20E-03    0.16E-03    0.30E-06
   1      8    12.378     5.382    0.18E-03    0.14E-03    0.26E-06

 ----------------------------------------------------------------------------- 
|                                                                             |
|  ADVICE TO THIS USER RUNNING 'VASP/VAMP'   (HEAR YOUR MASTER'S VOICE ...):  |
|                                                                             |
|      You enforced a specific xc-type in the INCAR file,                     |
|      a different type was found on the POTCAR file                          |
|          I HOPE YOU KNOW, WHAT YOU ARE  DOING                               |
|                                                                             |
 ----------------------------------------------------------------------------- 

  PAW_PBE Li 17Jan2003                  :
 energy of atom  1       EATOM=   -5.3001
 kinetic energy error for atom=    0.0000 (will be added to EATOM!!)
  PAW_PBE Ni 02Aug2007                  :
 energy of atom  2       EATOM=-1077.6739
 kinetic energy error for atom=    0.0019 (will be added to EATOM!!)
  PAW_PBE O 08Apr2002                   :
 energy of atom  3       EATOM= -432.3788
 kinetic energy error for atom=    0.0168 (will be added to EATOM!!)
 
  
 Occupation matrix control coded by Prof. Graeme Watson 
 at Trinity College Dublin
  
 Occupation set for the following atoms 
  
 
 POSCAR: SCEL1_1_1_1_0_0_0/0                     
  positions in direct lattice
  velocities in cartesian coordinates
 exchange correlation table for  LEXCH =       43
   RHO(1)=    0.500       N(1)  =     2000
   RHO(2)=  100.500       N(2)  =     4000
 


--------------------------------------------------------------------------------------------------------


 ion  position               nearest neighbor table
   1  1.000  0.000  0.000-   3 2.08   4 2.08   3 2.08   4 2.08   4 2.12   3 2.12   2 2.84   2 2.84
                             2 2.89   2 2.89   2 2.89   2 2.89
   2  0.500  0.500  0.500-   4 1.88   3 1.88   4 1.88   3 1.88   4 2.11   3 2.11   1 2.84   1 2.84
                             1 2.89   1 2.89   1 2.89   1 2.89
   3  0.727  0.774  0.725-   2 1.88   2 1.88   1 2.08   1 2.08   2 2.11   1 2.12
   4  0.273  0.226  0.275-   2 1.88   2 1.88   1 2.08   1 2.08   2 2.11   1 2.12
 

IMPORTANT INFORMATION: All symmetrisations will be switched off!
NOSYMM: (Re-)initialisation of all symmetry stuff for point group C_1.

 
 
 KPOINTS: Automatic mesh                          

Automatic generation of k-mesh.
 generate k-points for:   10   11    6
Space group operators:
 irot       det(A)        alpha          n_x          n_y          n_z        tau_x        tau_y        tau_z
    1     1.000000     0.000001     1.000000     0.000000     0.000000     0.000000     0.000000     0.000000
 
 Subroutine IBZKPT returns following result:
 ===========================================
 
 Found    660 irreducible k-points:
 
 Following reciprocal coordinates:
            Coordinates               Weight
  0.000000  0.000000  0.000000      1.000000
  0.100000  0.000000  0.000000      1.000000
  0.200000  0.000000  0.000000      1.000000
  0.300000  0.000000  0.000000      1.000000
  0.400000  0.000000  0.000000      1.000000
  0.500000  0.000000  0.000000      1.000000
 -0.400000  0.000000  0.000000      1.000000
 -0.300000  0.000000  0.000000      1.000000
 -0.200000  0.000000  0.000000      1.000000
 -0.100000  0.000000  0.000000      1.000000
  0.000000  0.090909  0.000000      1.000000
  0.100000  0.090909  0.000000      1.000000
  0.200000  0.090909  0.000000      1.000000
  0.300000  0.090909  0.000000      1.000000
  0.400000  0.090909  0.000000      1.000000
  0.500000  0.090909  0.000000      1.000000
 -0.400000  0.090909  0.000000      1.000000
 -0.300000  0.090909  0.000000      1.000000
 -0.200000  0.090909  0.000000      1.000000
 -0.100000  0.090909  0.000000      1.000000
  0.000000  0.181818  0.000000      1.000000
  0.100000  0.181818  0.000000      1.000000
  0.200000  0.181818  0.000000      1.000000
  0.300000  0.181818  0.000000      1.000000
  0.400000  0.181818  0.000000      1.000000
  0.500000  0.181818  0.000000      1.000000
 -0.400000  0.181818  0.000000      1.000000
 -0.300000  0.181818  0.000000      1.000000
 -0.200000  0.181818  0.000000      1.000000
 -0.100000  0.181818  0.000000      1.000000
  0.000000  0.272727  0.000000      1.000000
  0.100000  0.272727  0.000000      1.000000
  0.200000  0.272727  0.000000      1.000000
  0.300000  0.272727  0.000000      1.000000
  0.400000  0.272727  0.000000      1.000000
  0.500000  0.272727  0.000000      1.000000
 -0.400000  0.272727  0.000000      1.000000
 -0.300000  0.272727  0.000000      1.000000
 -0.200000  0.272727  0.000000      1.000000
 -0.100000  0.272727  0.000000      1.000000
  0.000000  0.363636  0.000000      1.000000
  0.100000  0.363636  0.000000      1.000000
  0.200000  0.363636  0.000000      1.000000
  0.300000  0.363636  0.000000      1.000000
  0.400000  0.363636  0.000000      1.000000
  0.500000  0.363636  0.000000      1.000000
 -0.400000  0.363636  0.000000      1.000000
 -0.300000  0.363636  0.000000      1.000000
 -0.200000  0.363636  0.000000      1.000000
 -0.100000  0.363636  0.000000      1.000000
  0.000000  0.454545  0.000000      1.000000
  0.100000  0.454545  0.000000      1.000000
  0.200000  0.454545  0.000000      1.000000
  0.300000  0.454545  0.000000      1.000000
  0.400000  0.454545  0.000000      1.000000
  0.500000  0.454545  0.000000      1.000000
 -0.400000  0.454545  0.000000      1.000000
 -0.300000  0.454545  0.000000      1.000000
 -0.200000  0.454545  0.000000      1.000000
 -0.100000  0.454545  0.000000      1.000000
  0.000000 -0.454545  0.000000      1.000000
  0.100000 -0.454545  0.000000      1.000000
  0.200000 -0.454545  0.000000      1.000000
  0.300000 -0.454545  0.000000      1.000000
  0.400000 -0.454545  0.000000      1.000000
  0.500000 -0.454545  0.000000      1.000000
 -0.400000 -0.454545  0.000000      1.000000
 -0.300000 -0.454545  0.000000      1.000000
 -0.200000 -0.454545  0.000000      1.000000
 -0.100000 -0.454545  0.000000      1.000000
  0.000000 -0.363636  0.000000      1.000000
  0.100000 -0.363636  0.000000      1.000000
  0.200000 -0.363636  0.000000      1.000000
  0.300000 -0.363636  0.000000      1.000000
  0.400000 -0.363636  0.000000      1.000000
  0.500000 -0.363636  0.000000      1.000000
 -0.400000 -0.363636  0.000000      1.000000
 -0.300000 -0.363636  0.000000      1.000000
 -0.200000 -0.363636  0.000000      1.000000
 -0.100000 -0.363636  0.000000      1.000000
  0.000000 -0.272727  0.000000      1.000000
  0.100000 -0.272727  0.000000      1.000000
  0.200000 -0.272727  0.000000      1.000000
  0.300000 -0.272727  0.000000      1.000000
  0.400000 -0.272727  0.000000      1.000000
  0.500000 -0.272727  0.000000      1.000000
 -0.400000 -0.272727  0.000000      1.000000
 -0.300000 -0.272727  0.000000      1.000000
 -0.200000 -0.272727  0.000000      1.000000
 -0.100000 -0.272727  0.000000      1.000000
  0.000000 -0.181818  0.000000      1.000000
  0.100000 -0.181818  0.000000      1.000000
  0.200000 -0.181818  0.000000      1.000000
  0.300000 -0.181818  0.000000      1.000000
  0.400000 -0.181818  0.000000      1.000000
  0.500000 -0.181818  0.000000      1.000000
 -0.400000 -0.181818  0.000000      1.000000
 -0.300000 -0.181818  0.000000      1.000000
 -0.200000 -0.181818  0.000000      1.000000
 -0.100000 -0.181818  0.000000      1.000000
  0.000000 -0.090909  0.000000      1.000000
  0.100000 -0.090909  0.000000      1.000000
  0.200000 -0.090909  0.000000      1.000000
  0.300000 -0.090909  0.000000      1.000000
  0.400000 -0.090909  0.000000      1.000000
  0.500000 -0.090909  0.000000      1.000000
 -0.400000 -0.090909  0.000000      1.000000
 -0.300000 -0.090909  0.000000      1.000000
 -0.200000 -0.090909  0.000000      1.000000
 -0.100000 -0.090909  0.000000      1.000000
  0.000000  0.000000  0.166667      1.000000
  0.100000  0.000000  0.166667      1.000000
  0.200000  0.000000  0.166667      1.000000
  0.300000  0.000000  0.166667      1.000000
  0.400000  0.000000  0.166667      1.000000
  0.500000  0.000000  0.166667      1.000000
 -0.400000  0.000000  0.166667      1.000000
 -0.300000  0.000000  0.166667      1.000000
 -0.200000  0.000000  0.166667      1.000000
 -0.100000  0.000000  0.166667      1.000000
  0.000000  0.090909  0.166667      1.000000
  0.100000  0.090909  0.166667      1.000000
  0.200000  0.090909  0.166667      1.000000
  0.300000  0.090909  0.166667      1.000000
  0.400000  0.090909  0.166667      1.000000
  0.500000  0.090909  0.166667      1.000000
 -0.400000  0.090909  0.166667      1.000000
 -0.300000  0.090909  0.166667      1.000000
 -0.200000  0.090909  0.166667      1.000000
 -0.100000  0.090909  0.166667      1.000000
  0.000000  0.181818  0.166667      1.000000
  0.100000  0.181818  0.166667      1.000000
  0.200000  0.181818  0.166667      1.000000
  0.300000  0.181818  0.166667      1.000000
  0.400000  0.181818  0.166667      1.000000
  0.500000  0.181818  0.166667      1.000000
 -0.400000  0.181818  0.166667      1.000000
 -0.300000  0.181818  0.166667      1.000000
 -0.200000  0.181818  0.166667      1.000000
 -0.100000  0.181818  0.166667      1.000000
  0.000000  0.272727  0.166667      1.000000
  0.100000  0.272727  0.166667      1.000000
  0.200000  0.272727  0.166667      1.000000
  0.300000  0.272727  0.166667      1.000000
  0.400000  0.272727  0.166667      1.000000
  0.500000  0.272727  0.166667      1.000000
 -0.400000  0.272727  0.166667      1.000000
 -0.300000  0.272727  0.166667      1.000000
 -0.200000  0.272727  0.166667      1.000000
 -0.100000  0.272727  0.166667      1.000000
  0.000000  0.363636  0.166667      1.000000
  0.100000  0.363636  0.166667      1.000000
  0.200000  0.363636  0.166667      1.000000
  0.300000  0.363636  0.166667      1.000000
  0.400000  0.363636  0.166667      1.000000
  0.500000  0.363636  0.166667      1.000000
 -0.400000  0.363636  0.166667      1.000000
 -0.300000  0.363636  0.166667      1.000000
 -0.200000  0.363636  0.166667      1.000000
 -0.100000  0.363636  0.166667      1.000000
  0.000000  0.454545  0.166667      1.000000
  0.100000  0.454545  0.166667      1.000000
  0.200000  0.454545  0.166667      1.000000
  0.300000  0.454545  0.166667      1.000000
  0.400000  0.454545  0.166667      1.000000
  0.500000  0.454545  0.166667      1.000000
 -0.400000  0.454545  0.166667      1.000000
 -0.300000  0.454545  0.166667      1.000000
 -0.200000  0.454545  0.166667      1.000000
 -0.100000  0.454545  0.166667      1.000000
  0.000000 -0.454545  0.166667      1.000000
  0.100000 -0.454545  0.166667      1.000000
  0.200000 -0.454545  0.166667      1.000000
  0.300000 -0.454545  0.166667      1.000000
  0.400000 -0.454545  0.166667      1.000000
  0.500000 -0.454545  0.166667      1.000000
 -0.400000 -0.454545  0.166667      1.000000
 -0.300000 -0.454545  0.166667      1.000000
 -0.200000 -0.454545  0.166667      1.000000
 -0.100000 -0.454545  0.166667      1.000000
  0.000000 -0.363636  0.166667      1.000000
  0.100000 -0.363636  0.166667      1.000000
  0.200000 -0.363636  0.166667      1.000000
  0.300000 -0.363636  0.166667      1.000000
  0.400000 -0.363636  0.166667      1.000000
  0.500000 -0.363636  0.166667      1.000000
 -0.400000 -0.363636  0.166667      1.000000
 -0.300000 -0.363636  0.166667      1.000000
 -0.200000 -0.363636  0.166667      1.000000
 -0.100000 -0.363636  0.166667      1.000000
  0.000000 -0.272727  0.166667      1.000000
  0.100000 -0.272727  0.166667      1.000000
  0.200000 -0.272727  0.166667      1.000000
  0.300000 -0.272727  0.166667      1.000000
  0.400000 -0.272727  0.166667      1.000000
  0.500000 -0.272727  0.166667      1.000000
 -0.400000 -0.272727  0.166667      1.000000
 -0.300000 -0.272727  0.166667      1.000000
 -0.200000 -0.272727  0.166667      1.000000
 -0.100000 -0.272727  0.166667      1.000000
  0.000000 -0.181818  0.166667      1.000000
  0.100000 -0.181818  0.166667      1.000000
  0.200000 -0.181818  0.166667      1.000000
  0.300000 -0.181818  0.166667      1.000000
  0.400000 -0.181818  0.166667      1.000000
  0.500000 -0.181818  0.166667      1.000000
 -0.400000 -0.181818  0.166667      1.000000
 -0.300000 -0.181818  0.166667      1.000000
 -0.200000 -0.181818  0.166667      1.000000
 -0.100000 -0.181818  0.166667      1.000000
  0.000000 -0.090909  0.166667      1.000000
  0.100000 -0.090909  0.166667      1.000000
  0.200000 -0.090909  0.166667      1.000000
  0.300000 -0.090909  0.166667      1.000000
  0.400000 -0.090909  0.166667      1.000000
  0.500000 -0.090909  0.166667      1.000000
 -0.400000 -0.090909  0.166667      1.000000
 -0.300000 -0.090909  0.166667      1.000000
 -0.200000 -0.090909  0.166667      1.000000
 -0.100000 -0.090909  0.166667      1.000000
  0.000000  0.000000  0.333333      1.000000
  0.100000  0.000000  0.333333      1.000000
  0.200000  0.000000  0.333333      1.000000
  0.300000  0.000000  0.333333      1.000000
  0.400000  0.000000  0.333333      1.000000
  0.500000  0.000000  0.333333      1.000000
 -0.400000  0.000000  0.333333      1.000000
 -0.300000  0.000000  0.333333      1.000000
 -0.200000  0.000000  0.333333      1.000000
 -0.100000  0.000000  0.333333      1.000000
  0.000000  0.090909  0.333333      1.000000
  0.100000  0.090909  0.333333      1.000000
  0.200000  0.090909  0.333333      1.000000
  0.300000  0.090909  0.333333      1.000000
  0.400000  0.090909  0.333333      1.000000
  0.500000  0.090909  0.333333      1.000000
 -0.400000  0.090909  0.333333      1.000000
 -0.300000  0.090909  0.333333      1.000000
 -0.200000  0.090909  0.333333      1.000000
 -0.100000  0.090909  0.333333      1.000000
  0.000000  0.181818  0.333333      1.000000
  0.100000  0.181818  0.333333      1.000000
  0.200000  0.181818  0.333333      1.000000
  0.300000  0.181818  0.333333      1.000000
  0.400000  0.181818  0.333333      1.000000
  0.500000  0.181818  0.333333      1.000000
 -0.400000  0.181818  0.333333      1.000000
 -0.300000  0.181818  0.333333      1.000000
 -0.200000  0.181818  0.333333      1.000000
 -0.100000  0.181818  0.333333      1.000000
  0.000000  0.272727  0.333333      1.000000
  0.100000  0.272727  0.333333      1.000000
  0.200000  0.272727  0.333333      1.000000
  0.300000  0.272727  0.333333      1.000000
  0.400000  0.272727  0.333333      1.000000
  0.500000  0.272727  0.333333      1.000000
 -0.400000  0.272727  0.333333      1.000000
 -0.300000  0.272727  0.333333      1.000000
 -0.200000  0.272727  0.333333      1.000000
 -0.100000  0.272727  0.333333      1.000000
  0.000000  0.363636  0.333333      1.000000
  0.100000  0.363636  0.333333      1.000000
  0.200000  0.363636  0.333333      1.000000
  0.300000  0.363636  0.333333      1.000000
  0.400000  0.363636  0.333333      1.000000
  0.500000  0.363636  0.333333      1.000000
 -0.400000  0.363636  0.333333      1.000000
 -0.300000  0.363636  0.333333      1.000000
 -0.200000  0.363636  0.333333      1.000000
 -0.100000  0.363636  0.333333      1.000000
  0.000000  0.454545  0.333333      1.000000
  0.100000  0.454545  0.333333      1.000000
  0.200000  0.454545  0.333333      1.000000
  0.300000  0.454545  0.333333      1.000000
  0.400000  0.454545  0.333333      1.000000
  0.500000  0.454545  0.333333      1.000000
 -0.400000  0.454545  0.333333      1.000000
 -0.300000  0.454545  0.333333      1.000000
 -0.200000  0.454545  0.333333      1.000000
 -0.100000  0.454545  0.333333      1.000000
  0.000000 -0.454545  0.333333      1.000000
  0.100000 -0.454545  0.333333      1.000000
  0.200000 -0.454545  0.333333      1.000000
  0.300000 -0.454545  0.333333      1.000000
  0.400000 -0.454545  0.333333      1.000000
  0.500000 -0.454545  0.333333      1.000000
 -0.400000 -0.454545  0.333333      1.000000
 -0.300000 -0.454545  0.333333      1.000000
 -0.200000 -0.454545  0.333333      1.000000
 -0.100000 -0.454545  0.333333      1.000000
  0.000000 -0.363636  0.333333      1.000000
  0.100000 -0.363636  0.333333      1.000000
  0.200000 -0.363636  0.333333      1.000000
  0.300000 -0.363636  0.333333      1.000000
  0.400000 -0.363636  0.333333      1.000000
  0.500000 -0.363636  0.333333      1.000000
 -0.400000 -0.363636  0.333333      1.000000
 -0.300000 -0.363636  0.333333      1.000000
 -0.200000 -0.363636  0.333333      1.000000
 -0.100000 -0.363636  0.333333      1.000000
  0.000000 -0.272727  0.333333      1.000000
  0.100000 -0.272727  0.333333      1.000000
  0.200000 -0.272727  0.333333      1.000000
  0.300000 -0.272727  0.333333      1.000000
  0.400000 -0.272727  0.333333      1.000000
  0.500000 -0.272727  0.333333      1.000000
 -0.400000 -0.272727  0.333333      1.000000
 -0.300000 -0.272727  0.333333      1.000000
 -0.200000 -0.272727  0.333333      1.000000
 -0.100000 -0.272727  0.333333      1.000000
  0.000000 -0.181818  0.333333      1.000000
  0.100000 -0.181818  0.333333      1.000000
  0.200000 -0.181818  0.333333      1.000000
  0.300000 -0.181818  0.333333      1.000000
  0.400000 -0.181818  0.333333      1.000000
  0.500000 -0.181818  0.333333      1.000000
 -0.400000 -0.181818  0.333333      1.000000
 -0.300000 -0.181818  0.333333      1.000000
 -0.200000 -0.181818  0.333333      1.000000
 -0.100000 -0.181818  0.333333      1.000000
  0.000000 -0.090909  0.333333      1.000000
  0.100000 -0.090909  0.333333      1.000000
  0.200000 -0.090909  0.333333      1.000000
  0.300000 -0.090909  0.333333      1.000000
  0.400000 -0.090909  0.333333      1.000000
  0.500000 -0.090909  0.333333      1.000000
 -0.400000 -0.090909  0.333333      1.000000
 -0.300000 -0.090909  0.333333      1.000000
 -0.200000 -0.090909  0.333333      1.000000
 -0.100000 -0.090909  0.333333      1.000000
  0.000000  0.000000  0.500000      1.000000
  0.100000  0.000000  0.500000      1.000000
  0.200000  0.000000  0.500000      1.000000
  0.300000  0.000000  0.500000      1.000000
  0.400000  0.000000  0.500000      1.000000
  0.500000  0.000000  0.500000      1.000000
 -0.400000  0.000000  0.500000      1.000000
 -0.300000  0.000000  0.500000      1.000000
 -0.200000  0.000000  0.500000      1.000000
 -0.100000  0.000000  0.500000      1.000000
  0.000000  0.090909  0.500000      1.000000
  0.100000  0.090909  0.500000      1.000000
  0.200000  0.090909  0.500000      1.000000
  0.300000  0.090909  0.500000      1.000000
  0.400000  0.090909  0.500000      1.000000
  0.500000  0.090909  0.500000      1.000000
 -0.400000  0.090909  0.500000      1.000000
 -0.300000  0.090909  0.500000      1.000000
 -0.200000  0.090909  0.500000      1.000000
 -0.100000  0.090909  0.500000      1.000000
  0.000000  0.181818  0.500000      1.000000
  0.100000  0.181818  0.500000      1.000000
  0.200000  0.181818  0.500000      1.000000
  0.300000  0.181818  0.500000      1.000000
  0.400000  0.181818  0.500000      1.000000
  0.500000  0.181818  0.500000      1.000000
 -0.400000  0.181818  0.500000      1.000000
 -0.300000  0.181818  0.500000      1.000000
 -0.200000  0.181818  0.500000      1.000000
 -0.100000  0.181818  0.500000      1.000000
  0.000000  0.272727  0.500000      1.000000
  0.100000  0.272727  0.500000      1.000000
  0.200000  0.272727  0.500000      1.000000
  0.300000  0.272727  0.500000      1.000000
  0.400000  0.272727  0.500000      1.000000
  0.500000  0.272727  0.500000      1.000000
 -0.400000  0.272727  0.500000      1.000000
 -0.300000  0.272727  0.500000      1.000000
 -0.200000  0.272727  0.500000      1.000000
 -0.100000  0.272727  0.500000      1.000000
  0.000000  0.363636  0.500000      1.000000
  0.100000  0.363636  0.500000      1.000000
  0.200000  0.363636  0.500000      1.000000
  0.300000  0.363636  0.500000      1.000000
  0.400000  0.363636  0.500000      1.000000
  0.500000  0.363636  0.500000      1.000000
 -0.400000  0.363636  0.500000      1.000000
 -0.300000  0.363636  0.500000      1.000000
 -0.200000  0.363636  0.500000      1.000000
 -0.100000  0.363636  0.500000      1.000000
  0.000000  0.454545  0.500000      1.000000
  0.100000  0.454545  0.500000      1.000000
  0.200000  0.454545  0.500000      1.000000
  0.300000  0.454545  0.500000      1.000000
  0.400000  0.454545  0.500000      1.000000
  0.500000  0.454545  0.500000      1.000000
 -0.400000  0.454545  0.500000      1.000000
 -0.300000  0.454545  0.500000      1.000000
 -0.200000  0.454545  0.500000      1.000000
 -0.100000  0.454545  0.500000      1.000000
  0.000000 -0.454545  0.500000      1.000000
  0.100000 -0.454545  0.500000      1.000000
  0.200000 -0.454545  0.500000      1.000000
  0.300000 -0.454545  0.500000      1.000000
  0.400000 -0.454545  0.500000      1.000000
  0.500000 -0.454545  0.500000      1.000000
 -0.400000 -0.454545  0.500000      1.000000
 -0.300000 -0.454545  0.500000      1.000000
 -0.200000 -0.454545  0.500000      1.000000
 -0.100000 -0.454545  0.500000      1.000000
  0.000000 -0.363636  0.500000      1.000000
  0.100000 -0.363636  0.500000      1.000000
  0.200000 -0.363636  0.500000      1.000000
  0.300000 -0.363636  0.500000      1.000000
  0.400000 -0.363636  0.500000      1.000000
  0.500000 -0.363636  0.500000      1.000000
 -0.400000 -0.363636  0.500000      1.000000
 -0.300000 -0.363636  0.500000      1.000000
 -0.200000 -0.363636  0.500000      1.000000
 -0.100000 -0.363636  0.500000      1.000000
  0.000000 -0.272727  0.500000      1.000000
  0.100000 -0.272727  0.500000      1.000000
  0.200000 -0.272727  0.500000      1.000000
  0.300000 -0.272727  0.500000      1.000000
  0.400000 -0.272727  0.500000      1.000000
  0.500000 -0.272727  0.500000      1.000000
 -0.400000 -0.272727  0.500000      1.000000
 -0.300000 -0.272727  0.500000      1.000000
 -0.200000 -0.272727  0.500000      1.000000
 -0.100000 -0.272727  0.500000      1.000000
  0.000000 -0.181818  0.500000      1.000000
  0.100000 -0.181818  0.500000      1.000000
  0.200000 -0.181818  0.500000      1.000000
  0.300000 -0.181818  0.500000      1.000000
  0.400000 -0.181818  0.500000      1.000000
  0.500000 -0.181818  0.500000      1.000000
 -0.400000 -0.181818  0.500000      1.000000
 -0.300000 -0.181818  0.500000      1.000000
 -0.200000 -0.181818  0.500000      1.000000
 -0.100000 -0.181818  0.500000      1.000000
  0.000000 -0.090909  0.500000      1.000000
  0.100000 -0.090909  0.500000      1.000000
  0.200000 -0.090909  0.500000      1.000000
  0.300000 -0.090909  0.500000      1.000000
  0.400000 -0.090909  0.500000      1.000000
  0.500000 -0.090909  0.500000      1.000000
 -0.400000 -0.090909  0.500000      1.000000
 -0.300000 -0.090909  0.500000      1.000000
 -0.200000 -0.090909  0.500000      1.000000
 -0.100000 -0.090909  0.500000      1.000000
  0.000000  0.000000 -0.333333      1.000000
  0.100000  0.000000 -0.333333      1.000000
  0.200000  0.000000 -0.333333      1.000000
  0.300000  0.000000 -0.333333      1.000000
  0.400000  0.000000 -0.333333      1.000000
  0.500000  0.000000 -0.333333      1.000000
 -0.400000  0.000000 -0.333333      1.000000
 -0.300000  0.000000 -0.333333      1.000000
 -0.200000  0.000000 -0.333333      1.000000
 -0.100000  0.000000 -0.333333      1.000000
  0.000000  0.090909 -0.333333      1.000000
  0.100000  0.090909 -0.333333      1.000000
  0.200000  0.090909 -0.333333      1.000000
  0.300000  0.090909 -0.333333      1.000000
  0.400000  0.090909 -0.333333      1.000000
  0.500000  0.090909 -0.333333      1.000000
 -0.400000  0.090909 -0.333333      1.000000
 -0.300000  0.090909 -0.333333      1.000000
 -0.200000  0.090909 -0.333333      1.000000
 -0.100000  0.090909 -0.333333      1.000000
  0.000000  0.181818 -0.333333      1.000000
  0.100000  0.181818 -0.333333      1.000000
  0.200000  0.181818 -0.333333      1.000000
  0.300000  0.181818 -0.333333      1.000000
  0.400000  0.181818 -0.333333      1.000000
  0.500000  0.181818 -0.333333      1.000000
 -0.400000  0.181818 -0.333333      1.000000
 -0.300000  0.181818 -0.333333      1.000000
 -0.200000  0.181818 -0.333333      1.000000
 -0.100000  0.181818 -0.333333      1.000000
  0.000000  0.272727 -0.333333      1.000000
  0.100000  0.272727 -0.333333      1.000000
  0.200000  0.272727 -0.333333      1.000000
  0.300000  0.272727 -0.333333      1.000000
  0.400000  0.272727 -0.333333      1.000000
  0.500000  0.272727 -0.333333      1.000000
 -0.400000  0.272727 -0.333333      1.000000
 -0.300000  0.272727 -0.333333      1.000000
 -0.200000  0.272727 -0.333333      1.000000
 -0.100000  0.272727 -0.333333      1.000000
  0.000000  0.363636 -0.333333      1.000000
  0.100000  0.363636 -0.333333      1.000000
  0.200000  0.363636 -0.333333      1.000000
  0.300000  0.363636 -0.333333      1.000000
  0.400000  0.363636 -0.333333      1.000000
  0.500000  0.363636 -0.333333      1.000000
 -0.400000  0.363636 -0.333333      1.000000
 -0.300000  0.363636 -0.333333      1.000000
 -0.200000  0.363636 -0.333333      1.000000
 -0.100000  0.363636 -0.333333      1.000000
  0.000000  0.454545 -0.333333      1.000000
  0.100000  0.454545 -0.333333      1.000000
  0.200000  0.454545 -0.333333      1.000000
  0.300000  0.454545 -0.333333      1.000000
  0.400000  0.454545 -0.333333      1.000000
  0.500000  0.454545 -0.333333      1.000000
 -0.400000  0.454545 -0.333333      1.000000
 -0.300000  0.454545 -0.333333      1.000000
 -0.200000  0.454545 -0.333333      1.000000
 -0.100000  0.454545 -0.333333      1.000000
  0.000000 -0.454545 -0.333333      1.000000
  0.100000 -0.454545 -0.333333      1.000000
  0.200000 -0.454545 -0.333333      1.000000
  0.300000 -0.454545 -0.333333      1.000000
  0.400000 -0.454545 -0.333333      1.000000
  0.500000 -0.454545 -0.333333      1.000000
 -0.400000 -0.454545 -0.333333      1.000000
 -0.300000 -0.454545 -0.333333      1.000000
 -0.200000 -0.454545 -0.333333      1.000000
 -0.100000 -0.454545 -0.333333      1.000000
  0.000000 -0.363636 -0.333333      1.000000
  0.100000 -0.363636 -0.333333      1.000000
  0.200000 -0.363636 -0.333333      1.000000
  0.300000 -0.363636 -0.333333      1.000000
  0.400000 -0.363636 -0.333333      1.000000
  0.500000 -0.363636 -0.333333      1.000000
 -0.400000 -0.363636 -0.333333      1.000000
 -0.300000 -0.363636 -0.333333      1.000000
 -0.200000 -0.363636 -0.333333      1.000000
 -0.100000 -0.363636 -0.333333      1.000000
  0.000000 -0.272727 -0.333333      1.000000
  0.100000 -0.272727 -0.333333      1.000000
  0.200000 -0.272727 -0.333333      1.000000
  0.300000 -0.272727 -0.333333      1.000000
  0.400000 -0.272727 -0.333333      1.000000
  0.500000 -0.272727 -0.333333      1.000000
 -0.400000 -0.272727 -0.333333      1.000000
 -0.300000 -0.272727 -0.333333      1.000000
 -0.200000 -0.272727 -0.333333      1.000000
 -0.100000 -0.272727 -0.333333      1.000000
  0.000000 -0.181818 -0.333333      1.000000
  0.100000 -0.181818 -0.333333      1.000000
  0.200000 -0.181818 -0.333333      1.000000
  0.300000 -0.181818 -0.333333      1.000000
  0.400000 -0.181818 -0.333333      1.000000
  0.500000 -0.181818 -0.333333      1.000000
 -0.400000 -0.181818 -0.333333      1.000000
 -0.300000 -0.181818 -0.333333      1.000000
 -0.200000 -0.181818 -0.333333      1.000000
 -0.100000 -0.181818 -0.333333      1.000000
  0.000000 -0.090909 -0.333333      1.000000
  0.100000 -0.090909 -0.333333      1.000000
  0.200000 -0.090909 -0.333333      1.000000
  0.300000 -0.090909 -0.333333      1.000000
  0.400000 -0.090909 -0.333333      1.000000
  0.500000 -0.090909 -0.333333      1.000000
 -0.400000 -0.090909 -0.333333      1.000000
 -0.300000 -0.090909 -0.333333      1.000000
 -0.200000 -0.090909 -0.333333      1.000000
 -0.100000 -0.090909 -0.333333      1.000000
  0.000000  0.000000 -0.166667      1.000000
  0.100000  0.000000 -0.166667      1.000000
  0.200000  0.000000 -0.166667      1.000000
  0.300000  0.000000 -0.166667      1.000000
  0.400000  0.000000 -0.166667      1.000000
  0.500000  0.000000 -0.166667      1.000000
 -0.400000  0.000000 -0.166667      1.000000
 -0.300000  0.000000 -0.166667      1.000000
 -0.200000  0.000000 -0.166667      1.000000
 -0.100000  0.000000 -0.166667      1.000000
  0.000000  0.090909 -0.166667      1.000000
  0.100000  0.090909 -0.166667      1.000000
  0.200000  0.090909 -0.166667      1.000000
  0.300000  0.090909 -0.166667      1.000000
  0.400000  0.090909 -0.166667      1.000000
  0.500000  0.090909 -0.166667      1.000000
 -0.400000  0.090909 -0.166667      1.000000
 -0.300000  0.090909 -0.166667      1.000000
 -0.200000  0.090909 -0.166667      1.000000
 -0.100000  0.090909 -0.166667      1.000000
  0.000000  0.181818 -0.166667      1.000000
  0.100000  0.181818 -0.166667      1.000000
  0.200000  0.181818 -0.166667      1.000000
  0.300000  0.181818 -0.166667      1.000000
  0.400000  0.181818 -0.166667      1.000000
  0.500000  0.181818 -0.166667      1.000000
 -0.400000  0.181818 -0.166667      1.000000
 -0.300000  0.181818 -0.166667      1.000000
 -0.200000  0.181818 -0.166667      1.000000
 -0.100000  0.181818 -0.166667      1.000000
  0.000000  0.272727 -0.166667      1.000000
  0.100000  0.272727 -0.166667      1.000000
  0.200000  0.272727 -0.166667      1.000000
  0.300000  0.272727 -0.166667      1.000000
  0.400000  0.272727 -0.166667      1.000000
  0.500000  0.272727 -0.166667      1.000000
 -0.400000  0.272727 -0.166667      1.000000
 -0.300000  0.272727 -0.166667      1.000000
 -0.200000  0.272727 -0.166667      1.000000
 -0.100000  0.272727 -0.166667      1.000000
  0.000000  0.363636 -0.166667      1.000000
  0.100000  0.363636 -0.166667      1.000000
  0.200000  0.363636 -0.166667      1.000000
  0.300000  0.363636 -0.166667      1.000000
  0.400000  0.363636 -0.166667      1.000000
  0.500000  0.363636 -0.166667      1.000000
 -0.400000  0.363636 -0.166667      1.000000
 -0.300000  0.363636 -0.166667      1.000000
 -0.200000  0.363636 -0.166667      1.000000
 -0.100000  0.363636 -0.166667      1.000000
  0.000000  0.454545 -0.166667      1.000000
  0.100000  0.454545 -0.166667      1.000000
  0.200000  0.454545 -0.166667      1.000000
  0.300000  0.454545 -0.166667      1.000000
  0.400000  0.454545 -0.166667      1.000000
  0.500000  0.454545 -0.166667      1.000000
 -0.400000  0.454545 -0.166667      1.000000
 -0.300000  0.454545 -0.166667      1.000000
 -0.200000  0.454545 -0.166667      1.000000
 -0.100000  0.454545 -0.166667      1.000000
  0.000000 -0.454545 -0.166667      1.000000
  0.100000 -0.454545 -0.166667      1.000000
  0.200000 -0.454545 -0.166667      1.000000
  0.300000 -0.454545 -0.166667      1.000000
  0.400000 -0.454545 -0.166667      1.000000
  0.500000 -0.454545 -0.166667      1.000000
 -0.400000 -0.454545 -0.166667      1.000000
 -0.300000 -0.454545 -0.166667      1.000000
 -0.200000 -0.454545 -0.166667      1.000000
 -0.100000 -0.454545 -0.166667      1.000000
  0.000000 -0.363636 -0.166667      1.000000
  0.100000 -0.363636 -0.166667      1.000000
  0.200000 -0.363636 -0.166667      1.000000
  0.300000 -0.363636 -0.166667      1.000000
  0.400000 -0.363636 -0.166667      1.000000
  0.500000 -0.363636 -0.166667      1.000000
 -0.400000 -0.363636 -0.166667      1.000000
 -0.300000 -0.363636 -0.166667      1.000000
 -0.200000 -0.363636 -0.166667      1.000000
 -0.100000 -0.363636 -0.166667      1.000000
  0.000000 -0.272727 -0.166667      1.000000
  0.100000 -0.272727 -0.166667      1.000000
  0.200000 -0.272727 -0.166667      1.000000
  0.300000 -0.272727 -0.166667      1.000000
  0.400000 -0.272727 -0.166667      1.000000
  0.500000 -0.272727 -0.166667      1.000000
 -0.400000 -0.272727 -0.166667      1.000000
 -0.300000 -0.272727 -0.166667      1.000000
 -0.200000 -0.272727 -0.166667      1.000000
 -0.100000 -0.272727 -0.166667      1.000000
  0.000000 -0.181818 -0.166667      1.000000
  0.100000 -0.181818 -0.166667      1.000000
  0.200000 -0.181818 -0.166667      1.000000
  0.300000 -0.181818 -0.166667      1.000000
  0.400000 -0.181818 -0.166667      1.000000
  0.500000 -0.181818 -0.166667      1.000000
 -0.400000 -0.181818 -0.166667      1.000000
 -0.300000 -0.181818 -0.166667      1.000000
 -0.200000 -0.181818 -0.166667      1.000000
 -0.100000 -0.181818 -0.166667      1.000000
  0.000000 -0.090909 -0.166667      1.000000
  0.100000 -0.090909 -0.166667      1.000000
  0.200000 -0.090909 -0.166667      1.000000
  0.300000 -0.090909 -0.166667      1.000000
  0.400000 -0.090909 -0.166667      1.000000
  0.500000 -0.090909 -0.166667      1.000000
 -0.400000 -0.090909 -0.166667      1.000000
 -0.300000 -0.090909 -0.166667      1.000000
 -0.200000 -0.090909 -0.166667      1.000000
 -0.100000 -0.090909 -0.166667      1.000000
 
 Following cartesian coordinates:
            Coordinates               Weight
  0.000000  0.000000  0.000000      1.000000
  0.033908 -0.019575 -0.006037      1.000000
  0.067816 -0.039149 -0.012073      1.000000
  0.101723 -0.058724 -0.018110      1.000000
  0.135631 -0.078299 -0.024146      1.000000
  0.169539 -0.097873 -0.030183      1.000000
 -0.135631  0.078299  0.024146      1.000000
 -0.101723  0.058724  0.018110      1.000000
 -0.067816  0.039149  0.012073      1.000000
 -0.033908  0.019575  0.006037      1.000000
  0.000913  0.037499 -0.006913      1.000000
  0.034821  0.017925 -0.012950      1.000000
  0.068729 -0.001650 -0.018986      1.000000
  0.102637 -0.021225 -0.025023      1.000000
  0.136544 -0.040799 -0.031059      1.000000
  0.170452 -0.060374 -0.037096      1.000000
 -0.134718  0.115798  0.017233      1.000000
 -0.100810  0.096223  0.011197      1.000000
 -0.066902  0.076649  0.005160      1.000000
 -0.032995  0.057074 -0.000877      1.000000
  0.001827  0.074999 -0.013826      1.000000
  0.035734  0.055424 -0.019863      1.000000
  0.069642  0.035849 -0.025899      1.000000
  0.103550  0.016275 -0.031936      1.000000
  0.137458 -0.003300 -0.037972      1.000000
  0.171366 -0.022875 -0.044009      1.000000
 -0.133805  0.153298  0.010320      1.000000
 -0.099897  0.133723  0.004283      1.000000
 -0.065989  0.114148 -0.001753      1.000000
 -0.032081  0.094574 -0.007790      1.000000
  0.002740  0.112498 -0.020739      1.000000
  0.036648  0.092924 -0.026776      1.000000
  0.070555  0.073349 -0.032813      1.000000
  0.104463  0.053774 -0.038849      1.000000
  0.138371  0.034200 -0.044886      1.000000
  0.172279  0.014625 -0.050922      1.000000
 -0.132891  0.190797  0.003407      1.000000
 -0.098984  0.171222 -0.002630      1.000000
 -0.065076  0.151648 -0.008666      1.000000
 -0.031168  0.132073 -0.014703      1.000000
  0.003653  0.149998 -0.027653      1.000000
  0.037561  0.130423 -0.033689      1.000000
  0.071469  0.110848 -0.039726      1.000000
  0.105376  0.091274 -0.045762      1.000000
  0.139284  0.071699 -0.051799      1.000000
  0.173192  0.052124 -0.057835      1.000000
 -0.131978  0.228296 -0.003506      1.000000
 -0.098070  0.208722 -0.009543      1.000000
 -0.064163  0.189147 -0.015579      1.000000
 -0.030255  0.169572 -0.021616      1.000000
  0.004566  0.187497 -0.034566      1.000000
  0.038474  0.167922 -0.040602      1.000000
  0.072382  0.148348 -0.046639      1.000000
  0.106290  0.128773 -0.052675      1.000000
  0.140198  0.109198 -0.058712      1.000000
  0.174105  0.089624 -0.064748      1.000000
 -0.131065  0.265796 -0.010419      1.000000
 -0.097157  0.246221 -0.016456      1.000000
 -0.063249  0.226647 -0.022493      1.000000
 -0.029341  0.207072 -0.028529      1.000000
 -0.004566 -0.187497  0.034566      1.000000
  0.029341 -0.207072  0.028529      1.000000
  0.063249 -0.226647  0.022493      1.000000
  0.097157 -0.246221  0.016456      1.000000
  0.131065 -0.265796  0.010419      1.000000
  0.164973 -0.285371  0.004383      1.000000
 -0.140198 -0.109198  0.058712      1.000000
 -0.106290 -0.128773  0.052675      1.000000
 -0.072382 -0.148348  0.046639      1.000000
 -0.038474 -0.167922  0.040602      1.000000
 -0.003653 -0.149998  0.027653      1.000000
  0.030255 -0.169572  0.021616      1.000000
  0.064163 -0.189147  0.015579      1.000000
  0.098070 -0.208722  0.009543      1.000000
  0.131978 -0.228296  0.003506      1.000000
  0.165886 -0.247871 -0.002530      1.000000
 -0.139284 -0.071699  0.051799      1.000000
 -0.105376 -0.091274  0.045762      1.000000
 -0.071469 -0.110848  0.039726      1.000000
 -0.037561 -0.130423  0.033689      1.000000
 -0.002740 -0.112498  0.020739      1.000000
  0.031168 -0.132073  0.014703      1.000000
  0.065076 -0.151648  0.008666      1.000000
  0.098984 -0.171222  0.002630      1.000000
  0.132891 -0.190797 -0.003407      1.000000
  0.166799 -0.210372 -0.009443      1.000000
 -0.138371 -0.034200  0.044886      1.000000
 -0.104463 -0.053774  0.038849      1.000000
 -0.070555 -0.073349  0.032813      1.000000
 -0.036648 -0.092924  0.026776      1.000000
 -0.001827 -0.074999  0.013826      1.000000
  0.032081 -0.094574  0.007790      1.000000
  0.065989 -0.114148  0.001753      1.000000
  0.099897 -0.133723 -0.004283      1.000000
  0.133805 -0.153298 -0.010320      1.000000
  0.167712 -0.172872 -0.016357      1.000000
 -0.137458  0.003300  0.037972      1.000000
 -0.103550 -0.016275  0.031936      1.000000
 -0.069642 -0.035849  0.025899      1.000000
 -0.035734 -0.055424  0.019863      1.000000
 -0.000913 -0.037499  0.006913      1.000000
  0.032995 -0.057074  0.000877      1.000000
  0.066902 -0.076649 -0.005160      1.000000
  0.100810 -0.096223 -0.011197      1.000000
  0.134718 -0.115798 -0.017233      1.000000
  0.168626 -0.135373 -0.023270      1.000000
 -0.136544  0.040799  0.031059      1.000000
 -0.102637  0.021225  0.025023      1.000000
 -0.068729  0.001650  0.018986      1.000000
 -0.034821 -0.017925  0.012950      1.000000
  0.000520 -0.000300  0.035408      1.000000
  0.034428 -0.019875  0.029372      1.000000
  0.068336 -0.039449  0.023335      1.000000
  0.102244 -0.059024  0.017299      1.000000
  0.136152 -0.078599  0.011262      1.000000
  0.170059 -0.098173  0.005226      1.000000
 -0.135111  0.077999  0.059555      1.000000
 -0.101203  0.058424  0.053518      1.000000
 -0.067295  0.038849  0.047482      1.000000
 -0.033387  0.019275  0.041445      1.000000
  0.001434  0.037200  0.028495      1.000000
  0.035341  0.017625  0.022459      1.000000
  0.069249 -0.001950  0.016422      1.000000
  0.103157 -0.021525  0.010386      1.000000
  0.137065 -0.041099  0.004349      1.000000
  0.170973 -0.060674 -0.001687      1.000000
 -0.134198  0.115498  0.052642      1.000000
 -0.100290  0.095924  0.046605      1.000000
 -0.066382  0.076349  0.040568      1.000000
 -0.032474  0.056774  0.034532      1.000000
  0.002347  0.074699  0.021582      1.000000
  0.036255  0.055124  0.015546      1.000000
  0.070163  0.035550  0.009509      1.000000
  0.104070  0.015975  0.003472      1.000000
  0.137978 -0.003600 -0.002564      1.000000
  0.171886 -0.023174 -0.008601      1.000000
 -0.133284  0.152998  0.045728      1.000000
 -0.099376  0.133423  0.039692      1.000000
 -0.065469  0.113848  0.033655      1.000000
 -0.031561  0.094274  0.027619      1.000000
  0.003260  0.112198  0.014669      1.000000
  0.037168  0.092624  0.008632      1.000000
  0.071076  0.073049  0.002596      1.000000
  0.104984  0.053474 -0.003441      1.000000
  0.138891  0.033900 -0.009477      1.000000
  0.172799  0.014325 -0.015514      1.000000
 -0.132371  0.190497  0.038815      1.000000
 -0.098463  0.170922  0.032779      1.000000
 -0.064555  0.151348  0.026742      1.000000
 -0.030648  0.131773  0.020706      1.000000
  0.004173  0.149698  0.007756      1.000000
  0.038081  0.130123  0.001719      1.000000
  0.071989  0.110548 -0.004317      1.000000
  0.105897  0.090974 -0.010354      1.000000
  0.139805  0.071399 -0.016390      1.000000
  0.173712  0.051824 -0.022427      1.000000
 -0.131458  0.227997  0.031902      1.000000
 -0.097550  0.208422  0.025866      1.000000
 -0.063642  0.188847  0.019829      1.000000
 -0.029734  0.169273  0.013792      1.000000
  0.005087  0.187197  0.000843      1.000000
  0.038995  0.167623 -0.005194      1.000000
  0.072902  0.148048 -0.011230      1.000000
  0.106810  0.128473 -0.017267      1.000000
  0.140718  0.108899 -0.023303      1.000000
  0.174626  0.089324 -0.029340      1.000000
 -0.130544  0.265496  0.024989      1.000000
 -0.096637  0.245921  0.018952      1.000000
 -0.062729  0.226347  0.012916      1.000000
 -0.028821  0.206772  0.006879      1.000000
 -0.004046 -0.187797  0.069974      1.000000
  0.029862 -0.207372  0.063938      1.000000
  0.063770 -0.226946  0.057901      1.000000
  0.097678 -0.246521  0.051864      1.000000
  0.131585 -0.266096  0.045828      1.000000
  0.165493 -0.285670  0.039791      1.000000
 -0.139677 -0.109498  0.094120      1.000000
 -0.105769 -0.129073  0.088084      1.000000
 -0.071861 -0.148648  0.082047      1.000000
 -0.037954 -0.168222  0.076011      1.000000
 -0.003133 -0.150298  0.063061      1.000000
  0.030775 -0.169872  0.057024      1.000000
  0.064683 -0.189447  0.050988      1.000000
  0.098591 -0.209022  0.044951      1.000000
  0.132499 -0.228596  0.038915      1.000000
  0.166406 -0.248171  0.032878      1.000000
 -0.138764 -0.071999  0.087207      1.000000
 -0.104856 -0.091574  0.081171      1.000000
 -0.070948 -0.111148  0.075134      1.000000
 -0.037040 -0.130723  0.069098      1.000000
 -0.002219 -0.112798  0.056148      1.000000
  0.031688 -0.132373  0.050111      1.000000
  0.065596 -0.151948  0.044075      1.000000
  0.099504 -0.171522  0.038038      1.000000
  0.133412 -0.191097  0.032002      1.000000
  0.167320 -0.210672  0.025965      1.000000
 -0.137851 -0.034499  0.080294      1.000000
 -0.103943 -0.054074  0.074257      1.000000
 -0.070035 -0.073649  0.068221      1.000000
 -0.036127 -0.093224  0.062184      1.000000
 -0.001306 -0.075299  0.049235      1.000000
  0.032602 -0.094873  0.043198      1.000000
  0.066510 -0.114448  0.037162      1.000000
  0.100417 -0.134023  0.031125      1.000000
  0.134325 -0.153597  0.025088      1.000000
  0.168233 -0.173172  0.019052      1.000000
 -0.136937  0.003000  0.073381      1.000000
 -0.103030 -0.016575  0.067344      1.000000
 -0.069122 -0.036149  0.061308      1.000000
 -0.035214 -0.055724  0.055271      1.000000
 -0.000393 -0.037799  0.042322      1.000000
  0.033515 -0.057374  0.036285      1.000000
  0.067423 -0.076949  0.030248      1.000000
  0.101331 -0.096523  0.024212      1.000000
  0.135238 -0.116098  0.018175      1.000000
  0.169146 -0.135673  0.012139      1.000000
 -0.136024  0.040499  0.066468      1.000000
 -0.102116  0.020925  0.060431      1.000000
 -0.068208  0.001350  0.054395      1.000000
 -0.034301 -0.018225  0.048358      1.000000
  0.001041 -0.000600  0.070817      1.000000
  0.034949 -0.020174  0.064780      1.000000
  0.068856 -0.039749  0.058744      1.000000
  0.102764 -0.059324  0.052707      1.000000
  0.136672 -0.078899  0.046671      1.000000
  0.170580 -0.098473  0.040634      1.000000
 -0.134590  0.077699  0.094963      1.000000
 -0.100683  0.058124  0.088927      1.000000
 -0.066775  0.038550  0.082890      1.000000
 -0.032867  0.018975  0.076853      1.000000
  0.001954  0.036900  0.063904      1.000000
  0.035862  0.017325  0.057867      1.000000
  0.069770 -0.002250  0.051831      1.000000
  0.103678 -0.021824  0.045794      1.000000
  0.137585 -0.041399  0.039757      1.000000
  0.171493 -0.060974  0.033721      1.000000
 -0.133677  0.115198  0.088050      1.000000
 -0.099769  0.095624  0.082013      1.000000
 -0.065862  0.076049  0.075977      1.000000
 -0.031954  0.056474  0.069940      1.000000
  0.002867  0.074399  0.056991      1.000000
  0.036775  0.054824  0.050954      1.000000
  0.070683  0.035250  0.044917      1.000000
  0.104591  0.015675  0.038881      1.000000
  0.138499 -0.003900  0.032844      1.000000
  0.172406 -0.023474  0.026808      1.000000
 -0.132764  0.152698  0.081137      1.000000
 -0.098856  0.133123  0.075100      1.000000
 -0.064948  0.113548  0.069064      1.000000
 -0.031040  0.093974  0.063027      1.000000
  0.003781  0.111899  0.050077      1.000000
  0.037688  0.092324  0.044041      1.000000
  0.071596  0.072749  0.038004      1.000000
  0.105504  0.053174  0.031968      1.000000
  0.139412  0.033600  0.025931      1.000000
  0.173320  0.014025  0.019895      1.000000
 -0.131851  0.190197  0.074224      1.000000
 -0.097943  0.170623  0.068187      1.000000
 -0.064035  0.151048  0.062151      1.000000
 -0.030127  0.131473  0.056114      1.000000
  0.004694  0.149398  0.043164      1.000000
  0.038602  0.129823  0.037128      1.000000
  0.072509  0.110249  0.031091      1.000000
  0.106417  0.090674  0.025055      1.000000
  0.140325  0.071099  0.019018      1.000000
  0.174233  0.051525  0.012982      1.000000
 -0.130937  0.227697  0.067311      1.000000
 -0.097030  0.208122  0.061274      1.000000
 -0.063122  0.188547  0.055237      1.000000
 -0.029214  0.168973  0.049201      1.000000
  0.005607  0.186897  0.036251      1.000000
  0.039515  0.167323  0.030215      1.000000
  0.073423  0.147748  0.024178      1.000000
  0.107331  0.128173  0.018142      1.000000
  0.141238  0.108599  0.012105      1.000000
  0.175146  0.089024  0.006068      1.000000
 -0.130024  0.265196  0.060397      1.000000
 -0.096116  0.245621  0.054361      1.000000
 -0.062208  0.226047  0.048324      1.000000
 -0.028301  0.206472  0.042288      1.000000
 -0.003525 -0.188097  0.105383      1.000000
  0.030382 -0.207672  0.099346      1.000000
  0.064290 -0.227246  0.093309      1.000000
  0.098198 -0.246821  0.087273      1.000000
  0.132106 -0.266396  0.081236      1.000000
  0.166014 -0.285970  0.075200      1.000000
 -0.139157 -0.109798  0.129529      1.000000
 -0.105249 -0.129373  0.123492      1.000000
 -0.071341 -0.148948  0.117456      1.000000
 -0.037433 -0.168522  0.111419      1.000000
 -0.002612 -0.150598  0.098469      1.000000
  0.031296 -0.170172  0.092433      1.000000
  0.065203 -0.189747  0.086396      1.000000
  0.099111 -0.209322  0.080360      1.000000
  0.133019 -0.228896  0.074323      1.000000
  0.166927 -0.248471  0.068287      1.000000
 -0.138243 -0.072299  0.122616      1.000000
 -0.104336 -0.091873  0.116579      1.000000
 -0.070428 -0.111448  0.110542      1.000000
 -0.036520 -0.131023  0.104506      1.000000
 -0.001699 -0.113098  0.091556      1.000000
  0.032209 -0.132673  0.085520      1.000000
  0.066117 -0.152247  0.079483      1.000000
  0.100024 -0.171822  0.073447      1.000000
  0.133932 -0.191397  0.067410      1.000000
  0.167840 -0.210972  0.061373      1.000000
 -0.137330 -0.034799  0.115702      1.000000
 -0.103422 -0.054374  0.109666      1.000000
 -0.069515 -0.073949  0.103629      1.000000
 -0.035607 -0.093523  0.097593      1.000000
 -0.000786 -0.075599  0.084643      1.000000
  0.033122 -0.095173  0.078607      1.000000
  0.067030 -0.114748  0.072570      1.000000
  0.100938 -0.134323  0.066533      1.000000
  0.134846 -0.153897  0.060497      1.000000
  0.168753 -0.173472  0.054460      1.000000
 -0.136417  0.002700  0.108789      1.000000
 -0.102509 -0.016875  0.102753      1.000000
 -0.068601 -0.036449  0.096716      1.000000
 -0.034693 -0.056024  0.090680      1.000000
  0.000128 -0.038099  0.077730      1.000000
  0.034035 -0.057674  0.071693      1.000000
  0.067943 -0.077249  0.065657      1.000000
  0.101851 -0.096823  0.059620      1.000000
  0.135759 -0.116398  0.053584      1.000000
  0.169667 -0.135973  0.047547      1.000000
 -0.135504  0.040200  0.101876      1.000000
 -0.101596  0.020625  0.095840      1.000000
 -0.067688  0.001050  0.089803      1.000000
 -0.033780 -0.018525  0.083767      1.000000
  0.001561 -0.000900  0.106225      1.000000
  0.035469 -0.020474  0.100189      1.000000
  0.069377 -0.040049  0.094152      1.000000
  0.103285 -0.059624  0.088116      1.000000
  0.137192 -0.079198  0.082079      1.000000
  0.171100 -0.098773  0.076042      1.000000
 -0.134070  0.077399  0.130371      1.000000
 -0.100162  0.057824  0.124335      1.000000
 -0.066254  0.038250  0.118298      1.000000
 -0.032347  0.018675  0.112262      1.000000
  0.002475  0.036600  0.099312      1.000000
  0.036382  0.017025  0.093276      1.000000
  0.070290 -0.002550  0.087239      1.000000
  0.104198 -0.022124  0.081202      1.000000
  0.138106 -0.041699  0.075166      1.000000
  0.172014 -0.061274  0.069129      1.000000
 -0.133157  0.114899  0.123458      1.000000
 -0.099249  0.095324  0.117422      1.000000
 -0.065341  0.075749  0.111385      1.000000
 -0.031433  0.056174  0.105349      1.000000
  0.003388  0.074099  0.092399      1.000000
  0.037296  0.054525  0.086362      1.000000
  0.071203  0.034950  0.080326      1.000000
  0.105111  0.015375  0.074289      1.000000
  0.139019 -0.004200  0.068253      1.000000
  0.172927 -0.023774  0.062216      1.000000
 -0.132243  0.152398  0.116545      1.000000
 -0.098336  0.132823  0.110509      1.000000
 -0.064428  0.113249  0.104472      1.000000
 -0.030520  0.093674  0.098436      1.000000
  0.004301  0.111599  0.085486      1.000000
  0.038209  0.092024  0.079449      1.000000
  0.072117  0.072449  0.073413      1.000000
  0.106024  0.052875  0.067376      1.000000
  0.139932  0.033300  0.061340      1.000000
  0.173840  0.013725  0.055303      1.000000
 -0.131330  0.189897  0.109632      1.000000
 -0.097422  0.170323  0.103596      1.000000
 -0.063515  0.150748  0.097559      1.000000
 -0.029607  0.131173  0.091522      1.000000
  0.005214  0.149098  0.078573      1.000000
  0.039122  0.129523  0.072536      1.000000
  0.073030  0.109949  0.066500      1.000000
  0.106938  0.090374  0.060463      1.000000
  0.140846  0.070799  0.054427      1.000000
  0.174753  0.051225  0.048390      1.000000
 -0.130417  0.227397  0.102719      1.000000
 -0.096509  0.207822  0.096682      1.000000
 -0.062601  0.188247  0.090646      1.000000
 -0.028693  0.168673  0.084609      1.000000
  0.006128  0.186598  0.071660      1.000000
  0.040035  0.167023  0.065623      1.000000
  0.073943  0.147448  0.059586      1.000000
  0.107851  0.127873  0.053550      1.000000
  0.141759  0.108299  0.047513      1.000000
  0.175667  0.088724  0.041477      1.000000
 -0.129504  0.264896  0.095806      1.000000
 -0.095596  0.245322  0.089769      1.000000
 -0.061688  0.225747  0.083733      1.000000
 -0.027780  0.206172  0.077696      1.000000
 -0.003005 -0.188397  0.140791      1.000000
  0.030903 -0.207972  0.134754      1.000000
  0.064811 -0.227546  0.128718      1.000000
  0.098718 -0.247121  0.122681      1.000000
  0.132626 -0.266696  0.116645      1.000000
  0.166534 -0.286270  0.110608      1.000000
 -0.138636 -0.110098  0.164937      1.000000
 -0.104728 -0.129673  0.158901      1.000000
 -0.070821 -0.149247  0.152864      1.000000
 -0.036913 -0.168822  0.146827      1.000000
 -0.002092 -0.150897  0.133878      1.000000
  0.031816 -0.170472  0.127841      1.000000
  0.065724 -0.190047  0.121805      1.000000
  0.099632 -0.209621  0.115768      1.000000
  0.133539 -0.229196  0.109732      1.000000
  0.167447 -0.248771  0.103695      1.000000
 -0.137723 -0.072599  0.158024      1.000000
 -0.103815 -0.092173  0.151987      1.000000
 -0.069907 -0.111748  0.145951      1.000000
 -0.036000 -0.131323  0.139914      1.000000
 -0.001179 -0.113398  0.126965      1.000000
  0.032729 -0.132973  0.120928      1.000000
  0.066637 -0.152547  0.114892      1.000000
  0.100545 -0.172122  0.108855      1.000000
  0.134453 -0.191697  0.102818      1.000000
  0.168360 -0.211271  0.096782      1.000000
 -0.136810 -0.035099  0.151111      1.000000
 -0.102902 -0.054674  0.145074      1.000000
 -0.068994 -0.074249  0.139038      1.000000
 -0.035086 -0.093823  0.133001      1.000000
 -0.000265 -0.075899  0.120052      1.000000
  0.033643 -0.095473  0.114015      1.000000
  0.067550 -0.115048  0.107978      1.000000
  0.101458 -0.134623  0.101942      1.000000
  0.135366 -0.154197  0.095905      1.000000
  0.169274 -0.173772  0.089869      1.000000
 -0.135896  0.002400  0.144198      1.000000
 -0.101989 -0.017174  0.138161      1.000000
 -0.068081 -0.036749  0.132125      1.000000
 -0.034173 -0.056324  0.126088      1.000000
  0.000648 -0.038399  0.113138      1.000000
  0.034556 -0.057974  0.107102      1.000000
  0.068464 -0.077548  0.101065      1.000000
  0.102371 -0.097123  0.095029      1.000000
  0.136279 -0.116698  0.088992      1.000000
  0.170187 -0.136273  0.082956      1.000000
 -0.134983  0.039900  0.137285      1.000000
 -0.101075  0.020325  0.131248      1.000000
 -0.067168  0.000750  0.125212      1.000000
 -0.033260 -0.018824  0.119175      1.000000
 -0.001041  0.000600 -0.070817      1.000000
  0.032867 -0.018975 -0.076853      1.000000
  0.066775 -0.038550 -0.082890      1.000000
  0.100683 -0.058124 -0.088927      1.000000
  0.134590 -0.077699 -0.094963      1.000000
  0.168498 -0.097274 -0.101000      1.000000
 -0.136672  0.078899 -0.046671      1.000000
 -0.102764  0.059324 -0.052707      1.000000
 -0.068856  0.039749 -0.058744      1.000000
 -0.034949  0.020174 -0.064780      1.000000
 -0.000128  0.038099 -0.077730      1.000000
  0.033780  0.018525 -0.083767      1.000000
  0.067688 -0.001050 -0.089803      1.000000
  0.101596 -0.020625 -0.095840      1.000000
  0.135504 -0.040200 -0.101876      1.000000
  0.169411 -0.059774 -0.107913      1.000000
 -0.135759  0.116398 -0.053584      1.000000
 -0.101851  0.096823 -0.059620      1.000000
 -0.067943  0.077249 -0.065657      1.000000
 -0.034035  0.057674 -0.071693      1.000000
  0.000786  0.075599 -0.084643      1.000000
  0.034693  0.056024 -0.090680      1.000000
  0.068601  0.036449 -0.096716      1.000000
  0.102509  0.016875 -0.102753      1.000000
  0.136417 -0.002700 -0.108789      1.000000
  0.170325 -0.022275 -0.114826      1.000000
 -0.134846  0.153897 -0.060497      1.000000
 -0.100938  0.134323 -0.066533      1.000000
 -0.067030  0.114748 -0.072570      1.000000
 -0.033122  0.095173 -0.078607      1.000000
  0.001699  0.113098 -0.091556      1.000000
  0.035607  0.093523 -0.097593      1.000000
  0.069515  0.073949 -0.103629      1.000000
  0.103422  0.054374 -0.109666      1.000000
  0.137330  0.034799 -0.115702      1.000000
  0.171238  0.015225 -0.121739      1.000000
 -0.133932  0.191397 -0.067410      1.000000
 -0.100024  0.171822 -0.073447      1.000000
 -0.066117  0.152247 -0.079483      1.000000
 -0.032209  0.132673 -0.085520      1.000000
  0.002612  0.150598 -0.098469      1.000000
  0.036520  0.131023 -0.104506      1.000000
  0.070428  0.111448 -0.110542      1.000000
  0.104336  0.091873 -0.116579      1.000000
  0.138243  0.072299 -0.122616      1.000000
  0.172151  0.052724 -0.128652      1.000000
 -0.133019  0.228896 -0.074323      1.000000
 -0.099111  0.209322 -0.080360      1.000000
 -0.065203  0.189747 -0.086396      1.000000
 -0.031296  0.170172 -0.092433      1.000000
  0.003525  0.188097 -0.105383      1.000000
  0.037433  0.168522 -0.111419      1.000000
  0.071341  0.148948 -0.117456      1.000000
  0.105249  0.129373 -0.123492      1.000000
  0.139157  0.109798 -0.129529      1.000000
  0.173064  0.090224 -0.135565      1.000000
 -0.132106  0.266396 -0.081236      1.000000
 -0.098198  0.246821 -0.087273      1.000000
 -0.064290  0.227246 -0.093309      1.000000
 -0.030382  0.207672 -0.099346      1.000000
 -0.005607 -0.186897 -0.036251      1.000000
  0.028301 -0.206472 -0.042288      1.000000
  0.062208 -0.226047 -0.048324      1.000000
  0.096116 -0.245621 -0.054361      1.000000
  0.130024 -0.265196 -0.060397      1.000000
  0.163932 -0.284771 -0.066434      1.000000
 -0.141238 -0.108599 -0.012105      1.000000
 -0.107331 -0.128173 -0.018142      1.000000
 -0.073423 -0.147748 -0.024178      1.000000
 -0.039515 -0.167323 -0.030215      1.000000
 -0.004694 -0.149398 -0.043164      1.000000
  0.029214 -0.168973 -0.049201      1.000000
  0.063122 -0.188547 -0.055237      1.000000
  0.097030 -0.208122 -0.061274      1.000000
  0.130937 -0.227697 -0.067311      1.000000
  0.164845 -0.247271 -0.073347      1.000000
 -0.140325 -0.071099 -0.019018      1.000000
 -0.106417 -0.090674 -0.025055      1.000000
 -0.072509 -0.110249 -0.031091      1.000000
 -0.038602 -0.129823 -0.037128      1.000000
 -0.003781 -0.111899 -0.050077      1.000000
  0.030127 -0.131473 -0.056114      1.000000
  0.064035 -0.151048 -0.062151      1.000000
  0.097943 -0.170623 -0.068187      1.000000
  0.131851 -0.190197 -0.074224      1.000000
  0.165758 -0.209772 -0.080260      1.000000
 -0.139412 -0.033600 -0.025931      1.000000
 -0.105504 -0.053174 -0.031968      1.000000
 -0.071596 -0.072749 -0.038004      1.000000
 -0.037688 -0.092324 -0.044041      1.000000
 -0.002867 -0.074399 -0.056991      1.000000
  0.031040 -0.093974 -0.063027      1.000000
  0.064948 -0.113548 -0.069064      1.000000
  0.098856 -0.133123 -0.075100      1.000000
  0.132764 -0.152698 -0.081137      1.000000
  0.166672 -0.172273 -0.087173      1.000000
 -0.138499  0.003900 -0.032844      1.000000
 -0.104591 -0.015675 -0.038881      1.000000
 -0.070683 -0.035250 -0.044917      1.000000
 -0.036775 -0.054824 -0.050954      1.000000
 -0.001954 -0.036900 -0.063904      1.000000
  0.031954 -0.056474 -0.069940      1.000000
  0.065862 -0.076049 -0.075977      1.000000
  0.099769 -0.095624 -0.082013      1.000000
  0.133677 -0.115198 -0.088050      1.000000
  0.167585 -0.134773 -0.094086      1.000000
 -0.137585  0.041399 -0.039757      1.000000
 -0.103678  0.021824 -0.045794      1.000000
 -0.069770  0.002250 -0.051831      1.000000
 -0.035862 -0.017325 -0.057867      1.000000
 -0.000520  0.000300 -0.035408      1.000000
  0.033387 -0.019275 -0.041445      1.000000
  0.067295 -0.038849 -0.047482      1.000000
  0.101203 -0.058424 -0.053518      1.000000
  0.135111 -0.077999 -0.059555      1.000000
  0.169019 -0.097574 -0.065591      1.000000
 -0.136152  0.078599 -0.011262      1.000000
 -0.102244  0.059024 -0.017299      1.000000
 -0.068336  0.039449 -0.023335      1.000000
 -0.034428  0.019875 -0.029372      1.000000
  0.000393  0.037799 -0.042322      1.000000
  0.034301  0.018225 -0.048358      1.000000
  0.068208 -0.001350 -0.054395      1.000000
  0.102116 -0.020925 -0.060431      1.000000
  0.136024 -0.040499 -0.066468      1.000000
  0.169932 -0.060074 -0.072504      1.000000
 -0.135238  0.116098 -0.018175      1.000000
 -0.101331  0.096523 -0.024212      1.000000
 -0.067423  0.076949 -0.030248      1.000000
 -0.033515  0.057374 -0.036285      1.000000
  0.001306  0.075299 -0.049235      1.000000
  0.035214  0.055724 -0.055271      1.000000
  0.069122  0.036149 -0.061308      1.000000
  0.103030  0.016575 -0.067344      1.000000
  0.136937 -0.003000 -0.073381      1.000000
  0.170845 -0.022575 -0.079417      1.000000
 -0.134325  0.153597 -0.025088      1.000000
 -0.100417  0.134023 -0.031125      1.000000
 -0.066510  0.114448 -0.037162      1.000000
 -0.032602  0.094873 -0.043198      1.000000
  0.002219  0.112798 -0.056148      1.000000
  0.036127  0.093224 -0.062184      1.000000
  0.070035  0.073649 -0.068221      1.000000
  0.103943  0.054074 -0.074257      1.000000
  0.137851  0.034499 -0.080294      1.000000
  0.171758  0.014925 -0.086331      1.000000
 -0.133412  0.191097 -0.032002      1.000000
 -0.099504  0.171522 -0.038038      1.000000
 -0.065596  0.151948 -0.044075      1.000000
 -0.031688  0.132373 -0.050111      1.000000
  0.003133  0.150298 -0.063061      1.000000
  0.037040  0.130723 -0.069098      1.000000
  0.070948  0.111148 -0.075134      1.000000
  0.104856  0.091574 -0.081171      1.000000
  0.138764  0.071999 -0.087207      1.000000
  0.172672  0.052424 -0.093244      1.000000
 -0.132499  0.228596 -0.038915      1.000000
 -0.098591  0.209022 -0.044951      1.000000
 -0.064683  0.189447 -0.050988      1.000000
 -0.030775  0.169872 -0.057024      1.000000
  0.004046  0.187797 -0.069974      1.000000
  0.037954  0.168222 -0.076011      1.000000
  0.071861  0.148648 -0.082047      1.000000
  0.105769  0.129073 -0.088084      1.000000
  0.139677  0.109498 -0.094120      1.000000
  0.173585  0.089924 -0.100157      1.000000
 -0.131585  0.266096 -0.045828      1.000000
 -0.097678  0.246521 -0.051864      1.000000
 -0.063770  0.226946 -0.057901      1.000000
 -0.029862  0.207372 -0.063938      1.000000
 -0.005087 -0.187197 -0.000843      1.000000
  0.028821 -0.206772 -0.006879      1.000000
  0.062729 -0.226347 -0.012916      1.000000
  0.096637 -0.245921 -0.018952      1.000000
  0.130544 -0.265496 -0.024989      1.000000
  0.164452 -0.285071 -0.031026      1.000000
 -0.140718 -0.108899  0.023303      1.000000
 -0.106810 -0.128473  0.017267      1.000000
 -0.072902 -0.148048  0.011230      1.000000
 -0.038995 -0.167623  0.005194      1.000000
 -0.004173 -0.149698 -0.007756      1.000000
  0.029734 -0.169273 -0.013792      1.000000
  0.063642 -0.188847 -0.019829      1.000000
  0.097550 -0.208422 -0.025866      1.000000
  0.131458 -0.227997 -0.031902      1.000000
  0.165366 -0.247571 -0.037939      1.000000
 -0.139805 -0.071399  0.016390      1.000000
 -0.105897 -0.090974  0.010354      1.000000
 -0.071989 -0.110548  0.004317      1.000000
 -0.038081 -0.130123 -0.001719      1.000000
 -0.003260 -0.112198 -0.014669      1.000000
  0.030648 -0.131773 -0.020706      1.000000
  0.064555 -0.151348 -0.026742      1.000000
  0.098463 -0.170922 -0.032779      1.000000
  0.132371 -0.190497 -0.038815      1.000000
  0.166279 -0.210072 -0.044852      1.000000
 -0.138891 -0.033900  0.009477      1.000000
 -0.104984 -0.053474  0.003441      1.000000
 -0.071076 -0.073049 -0.002596      1.000000
 -0.037168 -0.092624 -0.008632      1.000000
 -0.002347 -0.074699 -0.021582      1.000000
  0.031561 -0.094274 -0.027619      1.000000
  0.065469 -0.113848 -0.033655      1.000000
  0.099376 -0.133423 -0.039692      1.000000
  0.133284 -0.152998 -0.045728      1.000000
  0.167192 -0.172572 -0.051765      1.000000
 -0.137978  0.003600  0.002564      1.000000
 -0.104070 -0.015975 -0.003472      1.000000
 -0.070163 -0.035550 -0.009509      1.000000
 -0.036255 -0.055124 -0.015546      1.000000
 -0.001434 -0.037200 -0.028495      1.000000
  0.032474 -0.056774 -0.034532      1.000000
  0.066382 -0.076349 -0.040568      1.000000
  0.100290 -0.095924 -0.046605      1.000000
  0.134198 -0.115498 -0.052642      1.000000
  0.168105 -0.135073 -0.058678      1.000000
 -0.137065  0.041099 -0.004349      1.000000
 -0.103157  0.021525 -0.010386      1.000000
 -0.069249  0.001950 -0.016422      1.000000
 -0.035341 -0.017625 -0.022459      1.000000
 
[...]
      5      -0.1776      1.00000
      6       0.6016      1.00000
      7       1.5171      1.00000
      8       2.0424      1.00000
      9       2.4761      1.00000
     10       2.9898      1.00000
     11       3.2573      1.00000
     12       6.5276      0.00000
     13       7.2190      0.00000
     14      13.8890      0.00000
     15      16.7457      0.00000
     16      17.6557      0.00000
     17      18.3847      0.00000
     18      18.7267      0.00000
     19      20.9952      0.00000
     20      21.7148      0.00000
     21      22.8139      0.00000
     22      27.0280      0.00000
     23      28.9423      0.00000
     24      29.9728      0.00000

 k-point   648 :      -0.3000   -0.1818   -0.1667
  band No.  band energies     occupation 
      1     -13.5494      1.00000
      2     -12.4022      1.00000
      3      -1.2182      1.00000
      4      -0.6451      1.00000
      5       0.2270      1.00000
      6       0.6438      1.00000
      7       1.6348      1.00000
      8       2.1777      1.00000
      9       2.7548      1.00000
     10       3.3924      1.00000
     11       3.5387      1.00000
     12       6.5430      0.00000
     13       7.0623      0.00000
     14      13.0827      0.00000
     15      15.7106      0.00000
     16      17.8815      0.00000
     17      19.1457      0.00000
     18      19.4290      0.00000
     19      21.5020      0.00000
     20      22.3748      0.00000
     21      23.5911      0.00000
     22      26.0287      0.00000
     23      28.0320      0.00000
     24      29.9423      0.00000

 k-point   649 :      -0.2000   -0.1818   -0.1667
  band No.  band energies     occupation 
      1     -13.8046      1.00000
      2     -12.4685      1.00000
      3      -1.4356      1.00000
      4      -0.4043      1.00000
      5       0.3416      1.00000
      6       0.8874      1.00000
      7       1.6418      1.00000
      8       2.5305      1.00000
      9       2.9410      1.00000
     10       3.4570      1.00000
     11       3.9512      1.00000
     12       6.4555      0.00000
     13       7.0756      0.00000
     14      12.4621      0.00000
     15      14.7069      0.00000
     16      18.0790      0.00000
     17      19.8332      0.00000
     18      20.5106      0.00000
     19      21.4247      0.00000
     20      23.4684      0.00000
     21      24.2905      0.00000
     22      25.1188      0.00000
     23      27.6861      0.00000
     24      29.4339      0.00000

 k-point   650 :      -0.1000   -0.1818   -0.1667
  band No.  band energies     occupation 
      1     -13.9054      1.00000
      2     -12.5037      1.00000
      3      -1.5388      1.00000
      4      -0.2062      1.00000
      5       0.2299      1.00000
      6       1.1100      1.00000
      7       1.5844      1.00000
      8       2.7812      1.00000
      9       3.0580      1.00000
     10       3.4646      1.00000
     11       4.0002      1.00000
     12       6.5115      0.00000
     13       7.0633      0.00000
     14      12.1685      0.00000
     15      14.2984      0.00000
     16      18.1591      0.00000
     17      20.3624      0.00000
     18      20.8215      0.00000
     19      21.2993      0.00000
     20      23.8740      0.00000
     21      24.5497      0.00000
     22      25.7241      0.00000
     23      26.9734      0.00000
     24      28.9812      0.00000

 k-point   651 :       0.0000   -0.0909   -0.1667
  band No.  band energies     occupation 
      1     -14.0893      1.00000
      2     -12.5706      1.00000
      3      -1.7598      1.00000
      4      -0.0043      1.00000
      5       0.1437      1.00000
      6       1.3186      1.00000
      7       2.1073      1.00000
      8       2.8501      1.00000
      9       3.2125      1.00000
     10       3.5239      1.00000
     11       3.8379      1.00000
     12       6.8511      0.00000
     13       7.1152      0.00000
     14      11.6248      0.00000
     15      13.6658      0.00000
     16      18.2625      0.00000
     17      20.4702      0.00000
     18      21.3345      0.00000
     19      22.8619      0.00000
     20      23.9045      0.00000
     21      24.8607      0.00000
     22      26.0520      0.00000
     23      27.2868      0.00000
     24      28.3060      0.00000

 k-point   652 :       0.1000   -0.0909   -0.1667
  band No.  band energies     occupation 
      1     -13.9017      1.00000
      2     -12.5297      1.00000
      3      -1.5895      1.00000
      4      -0.2715      1.00000
      5       0.2986      1.00000
      6       1.0954      1.00000
      7       1.9730      1.00000
      8       2.3510      1.00000
      9       3.1939      1.00000
     10       3.4680      1.00000
     11       3.6927      1.00000
     12       6.7741      0.00000
     13       7.0096      0.00000
     14      12.2583      0.00000
     15      14.5603      0.00000
     16      17.8706      0.00000
     17      19.8417      0.00000
     18      20.9842      0.00000
     19      22.3457      0.00000
     20      22.9079      0.00000
     21      23.9381      0.00000
     22      25.8342      0.00000
     23      27.8990      0.00000
     24      29.5225      0.00000

 k-point   653 :       0.2000   -0.0909   -0.1667
  band No.  band energies     occupation 
      1     -13.5647      1.00000
      2     -12.4643      1.00000
      3      -1.4780      1.00000
      4      -0.4122      1.00000
      5       0.3610      1.00000
      6       0.7181      1.00000
      7       1.5865      1.00000
      8       2.0482      1.00000
      9       3.0806      1.00000
     10       3.1687      1.00000
     11       3.4647      1.00000
     12       6.8086      0.00000
     13       6.9061      0.00000
     14      13.3453      0.00000
     15      15.6890      0.00000
     16      17.3752      0.00000
     17      18.9258      0.00000
     18      20.0074      0.00000
     19      21.2848      0.00000
     20      22.4507      0.00000
     21      23.5251      0.00000
     22      25.5871      0.00000
     23      28.6701      0.00000
     24      30.2629      0.00000

 k-point   654 :       0.3000   -0.0909   -0.1667
  band No.  band energies     occupation 
      1     -13.1610      1.00000
      2     -12.4296      1.00000
      3      -1.6845      1.00000
      4      -0.2149      1.00000
      5      -0.0200      1.00000
      6       0.5499      1.00000
      7       1.4424      1.00000
      8       2.0397      1.00000
      9       2.6758      1.00000
     10       2.9002      1.00000
     11       3.2192      1.00000
     12       6.7959      0.00000
     13       6.9827      0.00000
     14      14.4514      0.00000
     15      16.1488      0.00000
     16      17.2563      0.00000
     17      18.0907      0.00000
     18      19.1687      0.00000
     19      20.7268      0.00000
     20      22.1133      0.00000
     21      23.3014      0.00000
     22      25.6329      0.00000
     23      29.4627      0.00000
     24      29.7808      0.00000

 k-point   655 :       0.4000   -0.0909   -0.1667
  band No.  band energies     occupation 
      1     -12.8272      1.00000
      2     -12.4657      1.00000
      3      -1.9250      1.00000
      4      -0.3559      1.00000
      5      -0.0791      1.00000
      6       0.5295      1.00000
      7       1.6113      1.00000
      8       2.0825      1.00000
      9       2.3910      1.00000
     10       2.7149      1.00000
     11       2.9241      1.00000
     12       6.7842      0.00000
     13       7.1088      0.00000
     14      14.8311      0.00000
     15      16.3452      0.00000
     16      17.2789      0.00000
     17      17.5596      0.00000
     18      19.1124      0.00000
     19      20.4738      0.00000
     20      21.8844      0.00000
     21      23.0932      0.00000
     22      25.8170      0.00000
     23      29.0423      0.00000
     24      30.8928      0.00000

 k-point   656 :       0.5000   -0.0909   -0.1667
  band No.  band energies     occupation 
      1     -12.8489      1.00000
      2     -12.4250      1.00000
      3      -1.9030      1.00000
      4      -0.4529      1.00000
      5      -0.1054      1.00000
      6       0.5279      1.00000
      7       1.7159      1.00000
      8       2.0734      1.00000
      9       2.3284      1.00000
     10       2.7629      1.00000
     11       2.8705      1.00000
     12       6.7584      0.00000
     13       7.2274      0.00000
     14      14.4078      0.00000
     15      16.7893      0.00000
     16      17.4069      0.00000
     17      17.4547      0.00000
     18      19.1234      0.00000
     19      20.4934      0.00000
     20      21.8154      0.00000
     21      22.9875      0.00000
     22      26.0263      0.00000
     23      28.8569      0.00000
     24      31.5543      0.00000

 k-point   657 :      -0.4000   -0.0909   -0.1667
  band No.  band energies     occupation 
      1     -13.1776      1.00000
      2     -12.3649      1.00000
      3      -1.6067      1.00000
      4      -0.5794      1.00000
      5       0.0171      1.00000
      6       0.5766      1.00000
      7       1.5179      1.00000
      8       2.1410      1.00000
      9       2.5402      1.00000
     10       2.9856      1.00000
     11       3.1421      1.00000
     12       6.7448      0.00000
     13       7.2149      0.00000
     14      13.7702      0.00000
     15      16.7471      0.00000
     16      17.5839      0.00000
     17      18.0150      0.00000
     18      18.9603      0.00000
     19      20.9756      0.00000
     20      21.9168      0.00000
     21      23.2129      0.00000
     22      26.2158      0.00000
     23      28.4933      0.00000
     24      30.9818      0.00000

 k-point   658 :      -0.3000   -0.0909   -0.1667
  band No.  band energies     occupation 
      1     -13.5692      1.00000
      2     -12.4037      1.00000
      3      -1.4013      1.00000
      4      -0.6842      1.00000
      5       0.3375      1.00000
      6       0.7252      1.00000
      7       1.5812      1.00000
      8       2.1454      1.00000
      9       2.8342      1.00000
     10       3.3272      1.00000
     11       3.5185      1.00000
     12       6.7815      0.00000
     13       7.0243      0.00000
     14      13.0031      0.00000
     15      15.8518      0.00000
     16      17.9783      0.00000
     17      18.7811      0.00000
     18      19.3732      0.00000
     19      21.8493      0.00000
     20      22.2611      0.00000
     21      23.7636      0.00000
     22      26.2754      0.00000
     23      27.9146      0.00000
     24      30.1288      0.00000

 k-point   659 :      -0.2000   -0.0909   -0.1667
  band No.  band energies     occupation 
      1     -13.9003      1.00000
      2     -12.4883      1.00000
      3      -1.5971      1.00000
      4      -0.3845      1.00000
      5       0.3195      1.00000
      6       1.0822      1.00000
      7       2.0628      1.00000
      8       2.2248      1.00000
      9       3.0083      1.00000
     10       3.4604      1.00000
     11       3.9611      1.00000
     12       6.7452      0.00000
     13       7.0074      0.00000
     14      12.2051      0.00000
     15      14.5783      0.00000
     16      18.2616      0.00000
     17      19.6028      0.00000
     18      20.6067      0.00000
     19      22.1782      0.00000
     20      23.1562      0.00000
     21      24.5751      0.00000
     22      25.8296      0.00000
     23      28.0515      0.00000
     24      28.7593      0.00000

 k-point   660 :      -0.1000   -0.0909   -0.1667
  band No.  band energies     occupation 
      1     -14.0880      1.00000
      2     -12.5561      1.00000
      3      -1.7694      1.00000
      4      -0.0635      1.00000
      5       0.1825      1.00000
      6       1.3140      1.00000
      7       2.1714      1.00000
      8       2.7139      1.00000
      9       3.1748      1.00000
     10       3.5030      1.00000
     11       3.9761      1.00000
     12       6.8046      0.00000
     13       7.1390      0.00000
     14      11.6435      0.00000
     15      13.6558      0.00000
     16      18.3863      0.00000
     17      20.3336      0.00000
     18      21.3535      0.00000
     19      22.8009      0.00000
     20      23.8735      0.00000
     21      24.6109      0.00000
     22      26.0172      0.00000
     23      27.8730      0.00000
     24      29.0737      0.00000


--------------------------------------------------------------------------------------------------------


 soft charge-density along one line, spin component           1
         0         1         2         3         4         5         6         7         8         9
 total charge-density along one line
 
 soft charge-density along one line, spin component           2
         0         1         2         3         4         5         6         7         8         9
 total charge-density along one line
 
 pseudopotential strength for first ion, spin component:           1
  1.194   5.279  -0.000   0.000   0.000
  5.279  22.363  -0.000   0.000   0.000
 -0.000  -0.000  -0.229   0.000  -0.000
  0.000   0.000   0.000  -0.229  -0.000
  0.000   0.000  -0.000  -0.000  -0.229
 pseudopotential strength for first ion, spin component:           2
  1.194   5.278  -0.000   0.000   0.000
  5.278  22.359  -0.000   0.000   0.000
 -0.000  -0.000  -0.231   0.000  -0.000
  0.000   0.000   0.000  -0.231  -0.000
  0.000   0.000  -0.000  -0.000  -0.230
 total augmentation occupancy for first ion, spin component:           1
  0.948  -0.028   0.000  -0.000  -0.000
 -0.028   0.001  -0.000   0.000   0.000
  0.000  -0.000   0.082   0.000  -0.002
 -0.000   0.000   0.000   0.091  -0.000
 -0.000   0.000  -0.002  -0.000   0.085
 total augmentation occupancy for first ion, spin component:           2
  0.021  -0.000   0.000   0.000   0.000
 -0.000   0.000  -0.000   0.000  -0.000
  0.000  -0.000   0.000   0.001  -0.002
  0.000   0.000   0.001   0.002  -0.002
  0.000  -0.000  -0.002  -0.002   0.002


------------------------ aborting loop because EDIFF is reached ----------------------------------------


    CHARGE:  cpu time    0.97: real time    0.98
    FORLOC:  cpu time    0.00: real time    0.00
    FORNL :  cpu time   11.45: real time   11.47
    STRESS:  cpu time   34.74: real time   34.78
    FORCOR:  cpu time    1.45: real time    1.45
    FORHAR:  cpu time    0.01: real time    0.01
    MIXING:  cpu time    0.00: real time    0.00
    OFIELD:  cpu time    0.00: real time    0.00

  FORCE on cell =-STRESS in cart. coord.  units (eV):
  Direction    XX          YY          ZZ          XY          YZ          ZX
  --------------------------------------------------------------------------------------
  Alpha Z    69.44318    69.44318    69.44318
  Ewald    -295.81979  -228.43531  -862.43520    58.44055   -27.22661    47.28084
  Hartree   363.78591   395.47142  -101.62651    27.47745    -9.32452    16.19157
  E(xc)    -117.89329  -117.88693  -117.86340     0.00546     0.00050    -0.00087
  Local    -503.69566  -595.95679   527.86429   -80.01395    32.18515   -55.89511
  n-local   -53.09504   -51.72487   -53.15794     1.18708    -0.97192     1.68633
  augment   190.89253   188.02382   190.43987    -2.48755     1.84966    -3.21382
  Kinetic   346.31635   341.02347   347.34812    -4.58665     3.49028    -6.05651
  Fock        0.00000     0.00000     0.00000     0.00000     0.00000     0.00000
  -------------------------------------------------------------------------------------
  Total      -0.06581    -0.04200     0.01241     0.02239     0.00255    -0.00758
  in kB      -3.18536    -2.03294     0.60076     1.08401     0.12355    -0.36686
  external pressure =       -1.54 kB  Pullay stress =        0.00 kB


 VOLUME and BASIS-vectors are now :
 -----------------------------------------------------------------------------
  energy-cutoff  :      600.00
  volume of cell :       33.10
      direct lattice vectors                 reciprocal lattice vectors
     2.896158149 -0.078502992 -0.043231572     0.339078026 -0.195746856 -0.060365548
     1.380101660  2.390661051 -0.000037086     0.010045886  0.412493789 -0.076044473
     1.316905445  0.833406598  4.694680805     0.003122523 -0.001799302  0.212450542

  length of vectors
     2.897544428  2.760424035  4.946598262     0.396149894  0.419565022  0.212481106


 FORCES acting on ions
    electron-ion (+dipol)            ewald-force                    non-local-force                 convergence-correction
 -----------------------------------------------------------------------------------------------
   -.525E-07 0.726E-07 0.200E-06   0.419E-07 -.609E-07 -.247E-06   0.122E-07 -.158E-07 0.190E-07   0.281E-13 -.467E-11 0.238E-10
   -.152E-05 0.117E-05 -.177E-05   0.157E-05 -.120E-05 0.207E-05   0.688E-07 -.477E-07 -.400E-07   0.337E-08 0.168E-08 -.600E-09
   -.263E+02 0.151E+02 -.305E+03   0.305E+02 -.176E+02 0.318E+03   -.424E+01 0.244E+01 -.130E+02   0.107E-03 -.673E-04 0.125E-02
   0.263E+02 -.151E+02 0.305E+03   -.305E+02 0.176E+02 -.318E+03   0.424E+01 -.244E+01 0.130E+02   -.107E-03 0.673E-04 -.125E-02
 -----------------------------------------------------------------------------------------------
   -.168E-06 0.140E-06 -.551E-07   -.107E-13 0.000E+00 -.568E-13   0.167E-06 -.138E-06 0.276E-07   0.106E-08 0.164E-09 -.188E-08
 
 
 POSITION                                       TOTAL-FORCE (eV/Angst)
 -----------------------------------------------------------------------------------
      2.89616     -0.07850     -0.04323         0.000000     -0.000000     -0.000000
      2.79658      1.57278      2.32571         0.000000     -0.000000      0.000000
      4.12819      2.39760      3.37189        -0.009077      0.006239     -0.009528
      1.46498      0.74797      1.27952         0.009077     -0.006239      0.009527
 -----------------------------------------------------------------------------------
    total drift:                                0.000000      0.000000     -0.000000


--------------------------------------------------------------------------------------------------------



  FREE ENERGIE OF THE ION-ELECTRON SYSTEM (eV)
  ---------------------------------------------------
  free  energy   TOTEN  =       -14.44295551 eV

  energy  without entropy=      -14.44295551  energy(sigma->0) =      -14.44295551
 


--------------------------------------------------------------------------------------------------------


    POTLOK:  cpu time    1.50: real time    1.51


--------------------------------------------------------------------------------------------------------


 writing wavefunctions
     LOOP+:  cpu time  200.92: real time  202.22
    4ORBIT:  cpu time    0.00: real time    0.00
 BZINTS: Fermi energy:  4.829740; 23.000000 electrons
         Band energy: -30.594870;  BLOECHL correction:  0.000000

 total amount of memory used by VASP on root node   113436. kBytes
========================================================================

   base      :      30000. kBytes
   nonlr-proj:       2393. kBytes
   fftplans  :       3492. kBytes
   grid      :       3930. kBytes
   one-center:        124. kBytes
   wavefun   :      73497. kBytes
 
  
  
 General timing and accounting informations for this job:
 ========================================================
  
                  Total CPU time used (sec):      212.557
                            User time (sec):      194.652
                          System time (sec):       17.904
                         Elapsed time (sec):      214.991
  
                   Maximum memory used (kb):      270672.
                   Average memory used (kb):           0.
  
                          Minor page faults:      9423440
                          Major page faults:            8
                 Voluntary context switches:          933
